 written on 25Nov2024 at 13:34:33 
   2.5102669204009289        0.0000000000000000        0.0000000000000000     
  -1.2551334602004645        2.1739539018422445        0.0000000000000000     
   0.0000000000000000        0.0000000000000000        14.999999580211844     
           6
          83
    1    1    2    1    1    1    1    1    1    2    1    1    1    1    1
    1    1    1    1    1    1    1    1    1    1    1    1    1    1    1
    1    1    1    1    1    1    1    1    1    1    1    1    1    1    1
    1    1    1    1    1    1    1    1    1    1    1    1    1    1    1
    1    1    1    1    1    1    1    1    1    1    1    1    1    2    1
    1    1    1    1    1    2    1    1

   -5   -3    0
    1    1   -0.30451073E-02  0.29740399E-04
    2    1    0.16358552E-03 -0.11017466E-04
    3    1    0.43172933E-03  0.82565974E-03
    4    1    0.11515044E-01  0.19741385E-02
    5    1   -0.15957734E-04 -0.93255738E-04
    6    1   -0.44830120E-04  0.42234477E-04
    1    2    0.68041646E-04  0.95046327E-04
    2    2    0.12104570E-02 -0.30203545E-03
    3    2    0.15574927E-01  0.59018064E-02
    4    2   -0.45336198E-04 -0.31467966E-05
    5    2   -0.14978136E-02  0.61437399E-03
    6    2   -0.66891818E-03 -0.88324130E-03
    1    3    0.12844504E-03  0.76602459E-04
    2    3   -0.21060323E-01 -0.88255280E-02
    3    3    0.88105977E-02 -0.12188116E-03
    4    3    0.17079482E-04  0.25639998E-03
    5    3   -0.13501042E-01 -0.60739338E-02
    6    3   -0.34576077E-01  0.16794591E-01
    1    4    0.34245653E-02 -0.18842893E-02
    2    4   -0.47950306E-04  0.57040157E-04
    3    4    0.20953056E-03  0.36777002E-03
    4    4   -0.40384180E-02 -0.26475539E-04
    5    4    0.50529467E-04  0.32935610E-04
    6    4    0.19085424E-04  0.28339000E-04
    1    5   -0.40109202E-04  0.44548541E-04
    2    5    0.93867417E-03 -0.88941350E-04
    3    5   -0.18944585E-01  0.33144236E-02
    4    5    0.19474261E-05  0.12493430E-06
    5    5    0.13713327E-02  0.39251212E-03
    6    5    0.17874792E-02 -0.18557579E-02
    1    6   -0.21015033E-04 -0.11551266E-03
    2    6    0.62271239E-04  0.17845294E-02
    3    6    0.66195022E-02 -0.35368944E-02
    4    6   -0.12347834E-04 -0.13494578E-04
    5    6   -0.16117952E-02  0.10872160E-03
    6    6   -0.49477878E-03  0.28139623E-04

   -5   -2    0
    1    1   -0.30443346E-02  0.23729597E-04
    2    1    0.93774808E-05  0.41136657E-04
    3    1   -0.27586441E-03 -0.49402978E-03
    4    1    0.10704908E-01  0.59184798E-02
    5    1   -0.44882861E-04  0.12459530E-04
    6    1    0.51311913E-04  0.48080624E-04
    1    2   -0.23383797E-04 -0.17264501E-04
    2    2   -0.53183403E-03  0.19601334E-03
    3    2   -0.86948570E-02  0.68495865E-02
    4    2    0.32607772E-04 -0.17073678E-04
    5    2    0.16625238E-02 -0.66159876E-03
    6    2    0.81596139E-03  0.15118712E-02
    1    3   -0.22655329E-03  0.67717951E-04
    2    3    0.37013626E-01 -0.10511572E-01
    3    3    0.89696314E-02 -0.12899352E-03
    4    3   -0.22618508E-03 -0.12747536E-03
    5    3   -0.23314831E-01 -0.70426142E-02
    6    3    0.16171919E-01  0.28590126E-02
    1    4   -0.34957636E-02  0.20290144E-02
    2    4   -0.78437003E-05  0.33963721E-05
    3    4    0.40287813E-03  0.15348121E-04
    4    4   -0.40396536E-02 -0.27000081E-04
    5    4    0.67939191E-04  0.41828696E-04
    6    4    0.13174281E-04 -0.37282123E-04
    1    5   -0.35008635E-05  0.14177685E-03
    2    5   -0.20878469E-02  0.18067781E-02
    3    5   -0.13480173E-01  0.21718749E-02
    4    5    0.47386195E-04 -0.14591756E-04
    5    5    0.12893072E-02  0.32508504E-03
    6    5   -0.99976814E-03 -0.17191667E-05
    1    6   -0.62158254E-04  0.46530315E-04
    2    6   -0.59134641E-03 -0.86541456E-03
    3    6   -0.14118487E-01 -0.80954453E-02
    4    6    0.71353016E-05  0.50010494E-04
    5    6    0.15184700E-02  0.10054317E-03
    6    6    0.11709670E-02 -0.38883438E-03

   -5   -1    0
    1    1   -0.21739213E-02 -0.19794194E-04
    2    1    0.27645017E-04 -0.11198822E-03
    3    1    0.10646011E-03 -0.17014466E-03
    4    1    0.87410389E-02  0.35084757E-02
    5    1   -0.14634007E-05  0.19983077E-05
    6    1   -0.35163622E-04 -0.65017144E-04
    1    2    0.37623408E-04  0.12027703E-03
    2    2   -0.11387916E-02  0.93818727E-03
    3    2   -0.19915604E-01  0.58692000E-03
    4    2   -0.17335474E-04 -0.61493322E-04
    5    2    0.88800412E-03  0.24161447E-03
    6    2   -0.42249859E-03  0.40542948E-03
    1    3    0.23682660E-03  0.84577667E-04
    2    3   -0.16840421E-01 -0.77806570E-03
    3    3   -0.11277576E-01  0.51451875E-04
    4    3   -0.59372192E-04  0.27452477E-03
    5    3    0.46559004E-01 -0.18460757E-02
    6    3    0.13411235E-01  0.35268439E-02
    1    4    0.34262505E-02 -0.18923787E-02
    2    4   -0.41229040E-04 -0.21752572E-05
    3    4    0.36663639E-03 -0.10038784E-03
    4    4   -0.10662968E-01  0.20170641E-04
    5    4   -0.13097443E-04 -0.37839975E-04
    6    4    0.34093963E-05  0.39390399E-04
    1    5   -0.26366198E-05  0.18326844E-04
    2    5    0.10432439E-02  0.28761913E-03
    3    5    0.25696011E-01 -0.31357091E-02
    4    5    0.13001145E-04 -0.96871875E-05
    5    5   -0.15142917E-02  0.85161618E-03
    6    5   -0.55964859E-03  0.42667924E-03
    1    6    0.45338267E-04 -0.68035686E-04
    2    6    0.46435783E-03  0.47878337E-03
    3    6    0.26313301E-01  0.53488611E-02
    4    6    0.52305594E-04 -0.54130446E-04
    5    6    0.26335983E-03  0.43986156E-03
    6    6   -0.20849051E-02 -0.18416318E-02

   -4   -5    0
    1    1   -0.21767595E-02  0.18944860E-04
    2    1   -0.37895076E-04 -0.34533292E-04
    3    1   -0.21539629E-03 -0.22762840E-03
    4    1    0.97644759E-02  0.25613823E-02
    5    1   -0.44158863E-04 -0.40005864E-05
    6    1   -0.31039072E-04 -0.84070001E-04
    1    2   -0.40187787E-04  0.22955420E-04
    2    2   -0.23540724E-02  0.18913253E-02
    3    2   -0.70038657E-02  0.42527761E-02
    4    2   -0.20707763E-04  0.12966967E-04
    5    2    0.10534376E-02 -0.79522358E-04
    6    2   -0.92814213E-03 -0.67020396E-04
    1    3   -0.15759431E-03  0.64570616E-04
    2    3   -0.22794229E-01  0.20499047E-02
    3    3   -0.10885510E-01  0.25631569E-04
    4    3    0.18174758E-03 -0.47181880E-03
    5    3    0.24486222E-01  0.27724461E-02
    6    3    0.21506529E-01 -0.19059525E-02
    1    4    0.10704471E-01 -0.59195663E-02
    2    4   -0.61457389E-04 -0.13855318E-04
    3    4    0.66733102E-04  0.15977378E-03
    4    4   -0.10658385E-01 -0.19155136E-04
    5    4    0.77231785E-04  0.27022054E-04
    6    4   -0.27671231E-04 -0.60066889E-04
    1    5   -0.63201388E-04 -0.13622715E-04
    2    5   -0.16197439E-03 -0.70843126E-04
    3    5    0.45515132E-01  0.11474233E-02
    4    5    0.52681651E-04  0.25031158E-05
    5    5   -0.13072738E-02 -0.10352733E-02
    6    5   -0.59838180E-03  0.43704397E-03
    1    6   -0.35861466E-04  0.43248871E-04
    2    6    0.28513247E-03 -0.23055501E-04
    3    6    0.24187656E-01  0.31462660E-02
    4    6   -0.20904376E-04  0.66273327E-04
    5    6   -0.64184705E-03  0.27343053E-03
    6    6   -0.14704534E-02 -0.88147333E-03

   -4   -4    0
    1    1    0.47354661E-02  0.52420829E-05
    2    1    0.50068133E-04  0.62239798E-04
    3    1    0.73794820E-03  0.11759351E-02
    4    1    0.87382242E-02  0.35059999E-02
    5    1   -0.98648307E-04 -0.39344249E-04
    6    1    0.41395930E-04  0.59213953E-04
    1    2    0.78926158E-04 -0.28480507E-04
    2    2    0.18836591E-03  0.15536838E-03
    3    2    0.35766904E-01 -0.92204073E-02
    4    2   -0.67215178E-04  0.79529745E-04
    5    2   -0.26224442E-02  0.12877157E-02
    6    2   -0.19690278E-02  0.26633264E-03
    1    3   -0.17922628E-03  0.36159931E-03
    2    3   -0.16146844E-01 -0.62218456E-02
    3    3   -0.57684826E-02 -0.55442138E-04
    4    3   -0.61204888E-03  0.87950534E-03
    5    3   -0.16196937E-01 -0.51097923E-02
    6    3   -0.37672087E-01  0.10813274E-01
    1    4    0.87382243E-02 -0.35000122E-02
    2    4    0.73484375E-04  0.11164094E-03
    3    4    0.74088696E-03  0.78766753E-03
    4    4   -0.69941688E-02 -0.43357023E-05
    5    4    0.11565429E-04 -0.40453775E-04
    6    4    0.20885603E-04  0.55138527E-04
    1    5   -0.19146932E-04  0.32455409E-04
    2    5    0.16887389E-02 -0.31657190E-03
    3    5   -0.17296991E-01 -0.28099421E-02
    4    5    0.39386480E-04 -0.41259725E-04
    5    5    0.13439033E-02  0.92822402E-03
    6    5    0.21523656E-02 -0.16073965E-03
    1    6    0.19728896E-04 -0.86835192E-04
    2    6    0.27514026E-02  0.16063111E-02
    3    6    0.18667168E-01  0.89533028E-02
    4    6    0.44241920E-04 -0.69187526E-04
    5    6   -0.17671636E-03 -0.53279574E-04
    6    6    0.15005428E-02 -0.10290566E-02

   -4   -3    0
    1    1    0.10911854E-01 -0.48673071E-04
    2    1   -0.92489798E-04 -0.94591942E-04
    3    1   -0.38021967E-03 -0.12617972E-02
    4    1   -0.50659175E-02 -0.29099271E-02
    5    1    0.10727997E-03  0.68106067E-04
    6    1    0.94685836E-04 -0.12245482E-04
    1    2   -0.41335785E-04 -0.18926806E-03
    2    2    0.21679248E-02  0.77405668E-03
    3    2    0.24843562E-01 -0.20735679E-02
    4    2    0.66280231E-04 -0.36351441E-04
    5    2   -0.20195023E-03  0.22676975E-05
    6    2    0.35745266E-02 -0.25401059E-03
    1    3   -0.33018465E-04 -0.11617891E-03
    2    3    0.39942681E-01  0.90421201E-02
    3    3    0.12860269E-01 -0.67176781E-03
    4    3    0.69417947E-04 -0.25518405E-03
    5    3   -0.16561825E-01  0.49748307E-02
    6    3    0.76228405E-02 -0.81025454E-02
    1    4   -0.87431940E-02  0.30118156E-02
    2    4    0.61811293E-04 -0.36794116E-04
    3    4   -0.15554156E-02 -0.20014458E-02
    4    4    0.46515709E-02  0.44861938E-04
    5    4    0.47093696E-05  0.24253589E-04
    6    4   -0.18441432E-04 -0.10216173E-04
    1    5   -0.36399313E-04  0.14291749E-03
    2    5   -0.98500068E-03 -0.38890818E-03
    3    5   -0.25085139E-01 -0.93815910E-02
    4    5   -0.19875086E-04  0.44562944E-04
    5    5    0.98703100E-03 -0.69551541E-03
    6    5    0.28445798E-03  0.22810811E-03
    1    6   -0.44805243E-04  0.13335431E-03
    2    6   -0.25157618E-02 -0.17211810E-02
    3    6   -0.53987650E-01 -0.19390048E-02
    4    6    0.20209388E-07  0.20455407E-04
    5    6    0.19279571E-02 -0.93476728E-03
    6    6    0.36450989E-02  0.59703767E-03

   -4   -2    0
    1    1    0.15948836E-01 -0.32118409E-03
    2    1   -0.38779848E-04  0.32690639E-04
    3    1   -0.36242664E-03 -0.73820347E-04
    4    1   -0.50717497E-02 -0.29121230E-02
    5    1   -0.33917230E-04  0.35613443E-04
    6    1   -0.78035651E-05  0.19133829E-04
    1    2   -0.90056715E-04  0.16710831E-05
    2    2   -0.31778543E-02 -0.12878382E-02
    3    2   -0.54894300E-01 -0.26791003E-03
    4    2    0.39763423E-04  0.64827172E-04
    5    2    0.97808934E-03  0.13264534E-03
    6    2   -0.89633132E-03  0.98193489E-03
    1    3    0.98768935E-04  0.34692280E-04
    2    3   -0.15025804E-01 -0.77734518E-02
    3    3   -0.12727638E-01 -0.47973899E-03
    4    3    0.14666069E-03  0.14569601E-04
    5    3    0.36675536E-01 -0.10675297E-01
    6    3    0.21867980E-01  0.33721167E-02
    1    4   -0.19321425E-01  0.11336258E-01
    2    4    0.78505157E-04 -0.42094066E-04
    3    4    0.16402886E-04 -0.38974638E-04
    4    4    0.12827449E-01  0.32104268E-03
    5    4   -0.21749185E-03 -0.16384228E-03
    6    4   -0.94841596E-04  0.15017040E-05
    1    5    0.15438345E-03 -0.13380106E-03
    2    5    0.57474301E-02  0.15007189E-02
    3    5    0.52802758E-01  0.14536886E-01
    4    5   -0.27882852E-04 -0.37326727E-04
    5    5   -0.39875094E-02  0.30885009E-02
    6    5   -0.59342328E-02  0.34730600E-03
    1    6    0.11319085E-03  0.28142611E-04
    2    6   -0.48585098E-03  0.59448482E-03
    3    6    0.56264580E-01  0.11487354E-01
    4    6    0.92612265E-04 -0.92192700E-04
    5    6   -0.13325737E-02 -0.11384010E-03
    6    6   -0.30841305E-02 -0.13207823E-02

   -4   -1    0
    1    1    0.10908794E-01 -0.44369828E-04
    2    1    0.10625574E-03  0.42975327E-04
    3    1    0.32770724E-03  0.83607269E-03
    4    1    0.87380281E-02  0.35024442E-02
    5    1   -0.27493548E-04 -0.15590935E-04
    6    1    0.15360372E-04 -0.64814183E-04
    1    2   -0.11551501E-03  0.76481108E-04
    2    2    0.31094911E-02  0.65254205E-03
    3    2    0.53927389E-01 -0.95374126E-02
    4    2    0.25264342E-04 -0.17353996E-05
    5    2   -0.19265081E-02  0.14137461E-02
    6    2   -0.27924103E-02 -0.52890414E-03
    1    3    0.56128266E-04 -0.31760184E-03
    2    3   -0.13529090E-01  0.61510394E-02
    3    3    0.13016972E-01 -0.76537076E-03
    4    3    0.32710176E-03 -0.28256993E-03
    5    3   -0.64453963E-02  0.65099761E-02
    6    3   -0.38655196E-01 -0.78453526E-03
    1    4   -0.19326837E-01  0.11347659E-01
    2    4   -0.56989780E-04  0.35259001E-04
    3    4   -0.18846725E-02 -0.85976986E-03
    4    4    0.46555319E-02  0.48449411E-04
    5    4   -0.16507564E-04  0.39292473E-04
    6    4    0.27655240E-04 -0.37209676E-05
    1    5    0.35072051E-04 -0.10711590E-03
    2    5   -0.99453434E-03 -0.71871486E-03
    3    5   -0.35219325E-01 -0.75830803E-02
    4    5   -0.12252681E-04  0.47524503E-04
    5    5    0.13052412E-02 -0.71620494E-03
    6    5    0.99592316E-03  0.23030586E-03
    1    6   -0.69688349E-04 -0.32448298E-04
    2    6    0.28842378E-02  0.11121842E-02
    3    6   -0.31006869E-01 -0.42413460E-02
    4    6   -0.13724492E-03  0.20067754E-04
    5    6   -0.33538269E-03 -0.34637930E-03
    6    6    0.22277184E-02  0.82495407E-03

   -4    0    0
    1    1    0.47328885E-02 -0.98510838E-06
    2    1    0.18627546E-04  0.54879978E-04
    3    1   -0.22824620E-03 -0.18709385E-03
    4    1    0.97644469E-02  0.25583056E-02
    5    1   -0.74033591E-04 -0.27215279E-04
    6    1    0.61785960E-05  0.68577144E-04
    1    2   -0.15046207E-03 -0.96925313E-04
    2    2    0.12744615E-02 -0.97188030E-03
    3    2   -0.23340834E-01 -0.45883132E-02
    4    2   -0.28691071E-04  0.25914897E-04
    5    2   -0.51729219E-03  0.12067686E-03
    6    2    0.26506859E-02  0.68124076E-03
    1    3   -0.14663394E-03  0.12436190E-04
    2    3    0.37531062E-01 -0.38384539E-02
    3    3   -0.55009200E-02  0.19484763E-05
    4    3   -0.97373245E-03  0.41935053E-03
    5    3   -0.27193665E-01 -0.63400622E-02
    6    3    0.10447275E-01  0.19641570E-02
    1    4   -0.87412921E-02  0.30186765E-02
    2    4   -0.81941323E-04 -0.35472181E-04
    3    4    0.11828903E-02  0.69538975E-03
    4    4   -0.69897918E-02 -0.82424874E-06
    5    4    0.49894779E-04 -0.11601893E-04
    6    4   -0.12908013E-03 -0.58027136E-04
    1    5   -0.31364496E-04  0.15360409E-03
    2    5   -0.16943736E-02  0.19386198E-03
    3    5   -0.42940142E-02 -0.40653557E-02
    4    5    0.10614502E-03 -0.63697279E-04
    5    5    0.15463845E-02  0.10205150E-02
    6    5   -0.19645905E-02  0.59051883E-03
    1    6   -0.24452902E-04  0.18655536E-03
    2    6   -0.18445161E-02 -0.70610542E-03
    3    6   -0.34204565E-01  0.24546185E-02
    4    6    0.11764781E-03 -0.18574676E-05
    5    6    0.31462331E-02 -0.45105037E-03
    6    6   -0.57396007E-04 -0.48773856E-04

   -4    1    0
    1    1   -0.21739213E-02  0.19794194E-04
    2    1    0.37623408E-04 -0.12027703E-03
    3    1    0.23682660E-03 -0.84577667E-04
    4    1    0.34262505E-02  0.18923787E-02
    5    1   -0.26366198E-05 -0.18326844E-04
    6    1    0.45338267E-04  0.68035686E-04
    1    2    0.27645017E-04  0.11198822E-03
    2    2   -0.11387916E-02 -0.93818727E-03
    3    2   -0.16840421E-01  0.77806570E-03
    4    2   -0.41229040E-04  0.21752572E-05
    5    2    0.10432439E-02 -0.28761913E-03
    6    2    0.46435783E-03 -0.47878337E-03
    1    3    0.10646011E-03  0.17014466E-03
    2    3   -0.19915604E-01 -0.58692000E-03
    3    3   -0.11277576E-01 -0.51451875E-04
    4    3    0.36663639E-03  0.10038784E-03
    5    3    0.25696011E-01  0.31357091E-02
    6    3    0.26313301E-01 -0.53488611E-02
    1    4    0.87410389E-02 -0.35084757E-02
    2    4   -0.17335474E-04  0.61493322E-04
    3    4   -0.59372192E-04 -0.27452477E-03
    4    4   -0.10662968E-01 -0.20170641E-04
    5    4    0.13001145E-04  0.96871875E-05
    6    4    0.52305594E-04  0.54130446E-04
    1    5   -0.14634007E-05 -0.19983077E-05
    2    5    0.88800412E-03 -0.24161447E-03
    3    5    0.46559004E-01  0.18460757E-02
    4    5   -0.13097443E-04  0.37839975E-04
    5    5   -0.15142917E-02 -0.85161618E-03
    6    5    0.26335983E-03 -0.43986156E-03
    1    6   -0.35163622E-04  0.65017144E-04
    2    6   -0.42249859E-03 -0.40542948E-03
    3    6    0.13411235E-01 -0.35268439E-02
    4    6    0.34093963E-05 -0.39390399E-04
    5    6   -0.55964859E-03 -0.42667924E-03
    6    6   -0.20849051E-02  0.18416318E-02

   -3   -6    0
    1    1   -0.10460377E-01  0.91265342E-04
    2    1    0.33176354E-04  0.78385212E-04
    3    1    0.53912450E-04 -0.79452889E-04
    4    1    0.38947054E-02 -0.20826354E-02
    5    1   -0.16451546E-04  0.85022711E-04
    6    1    0.85737409E-05 -0.87885848E-04
    1    2    0.16082398E-04  0.66038353E-05
    2    2   -0.11952957E-03 -0.27819506E-03
    3    2   -0.73581918E-02 -0.74785208E-02
    4    2    0.20567746E-04  0.16166216E-05
    5    2    0.20270212E-02  0.15199792E-04
    6    2   -0.18597487E-02  0.31825612E-03
    1    3    0.43116625E-04  0.26552538E-03
    2    3   -0.55265429E-02  0.53481591E-02
    3    3   -0.26399862E-01  0.93391796E-03
    4    3    0.31194364E-04 -0.20840581E-03
    5    3    0.19934094E-01  0.36422916E-02
    6    3    0.77074029E-02 -0.47424509E-02
    1    4    0.11516653E-01 -0.19751634E-02
    2    4   -0.14953869E-04  0.12141871E-04
    3    4   -0.31010571E-03 -0.25042469E-03
    4    4   -0.36412364E-02 -0.91300752E-04
    5    4    0.53593974E-04  0.50437823E-04
    6    4    0.20379471E-04  0.97193519E-05
    1    5   -0.78506765E-04 -0.39431866E-04
    2    5    0.16252844E-02 -0.35530216E-03
    3    5    0.38400365E-01 -0.75591321E-02
    4    5   -0.18998439E-04  0.26516858E-04
    5    5    0.13358531E-03 -0.35807340E-03
    6    5   -0.16808805E-02  0.45687225E-03
    1    6    0.53454266E-06  0.77987968E-04
    2    6   -0.16852009E-02  0.48387582E-04
    3    6    0.13353966E-01  0.75102080E-02
    4    6   -0.33882633E-04  0.44244226E-04
    5    6   -0.16670575E-02 -0.14997359E-03
    6    6    0.17502480E-03 -0.29761409E-03

   -3   -5    0
    1    1   -0.30421584E-02 -0.22963464E-04
    2    1    0.13245298E-04  0.12333219E-03
    3    1   -0.62962195E-04  0.47613640E-03
    4    1    0.34233272E-02  0.18882993E-02
    5    1   -0.40056816E-04  0.16065098E-05
    6    1    0.26349225E-04  0.81186091E-04
    1    2   -0.26610011E-04 -0.34009694E-04
    2    2    0.12314099E-02  0.38783335E-03
    3    2    0.46319631E-01  0.94183713E-03
    4    2    0.16575672E-04  0.28230329E-04
    5    2   -0.57342377E-03  0.15455910E-02
    6    2   -0.92273565E-03  0.39432665E-03
    1    3   -0.26665218E-03  0.44196783E-03
    2    3   -0.12578387E-01 -0.33934039E-02
    3    3    0.88981402E-02  0.12540419E-03
    4    3   -0.20253647E-03  0.55852560E-03
    5    3   -0.90024803E-02 -0.34670082E-02
    6    3   -0.12226232E-01  0.39811250E-02
    1    4    0.11514788E-01 -0.19722278E-02
    2    4    0.25809196E-04  0.43180866E-05
    3    4    0.21980026E-03  0.55218862E-03
    4    4   -0.40418287E-02  0.26040221E-04
    5    4   -0.20373285E-04 -0.73149033E-04
    6    4    0.85966017E-05  0.26710141E-04
    1    5   -0.78141411E-04  0.14406866E-04
    2    5    0.38150217E-03 -0.90503810E-03
    3    5   -0.15732021E-01  0.59792450E-02
    4    5    0.74044878E-07 -0.10481565E-04
    5    5   -0.58990983E-03 -0.18234554E-03
    6    5    0.21425943E-02  0.13579812E-02
    1    6    0.41815451E-04 -0.23377786E-04
    2    6    0.14223075E-02  0.58453307E-03
    3    6    0.17741516E-01  0.37997356E-02
    4    6    0.60258462E-04 -0.66771117E-04
    5    6   -0.17645774E-02 -0.85047173E-03
    6    6    0.13584301E-02 -0.33396876E-03

   -3   -4    0
    1    1    0.10909155E-01  0.44267038E-04
    2    1    0.23876094E-04 -0.17495703E-03
    3    1    0.38517079E-03 -0.56708440E-03
    4    1   -0.87380414E-02 -0.30094327E-02
    5    1    0.11210377E-03  0.15393535E-03
    6    1    0.83882841E-04 -0.32508159E-04
    1    2    0.42668945E-05 -0.22980969E-04
    2    2    0.23084732E-02 -0.92478956E-03
    3    2   -0.45452964E-01 -0.19789307E-02
    4    2   -0.19558495E-05 -0.48067826E-04
    5    2    0.27875043E-02 -0.10682970E-02
    6    2    0.11596677E-02 -0.64659545E-03
    1    3    0.24765416E-03 -0.35023319E-03
    2    3    0.27911458E-01  0.23401364E-02
    3    3    0.12742729E-01  0.76603687E-03
    4    3    0.27483178E-03 -0.24951014E-03
    5    3   -0.88087141E-02  0.19896342E-02
    6    3    0.34352646E-02 -0.39965210E-02
    1    4   -0.50680537E-02  0.29086415E-02
    2    4   -0.68208301E-05 -0.37047339E-04
    3    4   -0.55805640E-03 -0.12144537E-02
    4    4    0.46544439E-02 -0.47032775E-04
    5    4   -0.18995934E-04  0.21522379E-04
    6    4   -0.76079650E-05  0.12405399E-04
    1    5    0.74785666E-05  0.56341043E-04
    2    5   -0.35475573E-02  0.26481775E-03
    3    5   -0.33408737E-01 -0.44590111E-02
    4    5    0.92717376E-05  0.29438035E-04
    5    5    0.33665101E-02 -0.66856155E-03
    6    5    0.60627515E-03 -0.41011461E-03
    1    6   -0.44520361E-04  0.11215594E-03
    2    6   -0.18359291E-03  0.99093540E-04
    3    6   -0.75585822E-01 -0.15959917E-01
    4    6   -0.82907503E-04  0.26534579E-04
    5    6    0.17001785E-02  0.14544059E-02
    6    6    0.12424377E-02  0.83007997E-03

   -3   -3    0
    1    1    0.10723702E-01 -0.14293608E-05
    2    1   -0.18777404E-03  0.48844848E-04
    3    1   -0.18438069E-02 -0.17922805E-02
    4    1   -0.22990113E-01 -0.10417810E-01
    5    1    0.88188309E-04 -0.69580282E-04
    6    1   -0.15133961E-03 -0.46598263E-04
    1    2   -0.14998120E-03  0.29090422E-03
    2    2   -0.43936650E-02 -0.13044048E-03
    3    2    0.39919024E-02  0.17909310E-01
    4    2    0.93021562E-04 -0.26169026E-04
    5    2    0.26616927E-03 -0.15207919E-02
    6    2    0.37513816E-02 -0.25554183E-03
    1    3    0.85343912E-04  0.26104032E-04
    2    3   -0.94126782E-02 -0.52347858E-02
    3    3    0.14291198E-01  0.51747963E-04
    4    3    0.44618731E-03 -0.46474665E-03
    5    3    0.37429601E-01 -0.39582647E-02
    6    3    0.25203010E-01  0.19584064E-02
    1    4   -0.22989950E-01  0.10403501E-01
    2    4   -0.88223269E-04 -0.11998748E-03
    3    4   -0.70738497E-03  0.69877941E-03
    4    4    0.18476191E-01  0.45693323E-05
    5    4   -0.10768380E-03 -0.68306653E-04
    6    4   -0.99307014E-04 -0.82811541E-04
    1    5    0.14352667E-03 -0.19319017E-03
    2    5   -0.32545013E-02  0.59996009E-03
    3    5    0.81684388E-01  0.17147543E-01
    4    5    0.12113772E-04 -0.40269520E-04
    5    5   -0.28286618E-03 -0.99307520E-03
    6    5    0.36515973E-02 -0.60904674E-03
    1    6    0.18097549E-04 -0.74003560E-04
    2    6   -0.38581245E-03 -0.15314192E-02
    3    6    0.76332919E-01  0.57514815E-02
    4    6    0.85552002E-04  0.50324665E-04
    5    6   -0.85099729E-03 -0.16807056E-03
    6    6   -0.27964769E-03  0.10686277E-02

   -3   -2    0
    1    1   -0.43792366E-02  0.39910848E-03
    2    1    0.14671194E-03  0.13993845E-03
    3    1    0.20658328E-02  0.39104945E-02
    4    1   -0.26066953E-01 -0.17339176E-01
    5    1    0.87981161E-05  0.71829069E-04
    6    1   -0.33116310E-04 -0.10595130E-03
    1    2    0.18382990E-03  0.98514583E-04
    2    2   -0.15973110E-02 -0.24744581E-02
    3    2   -0.87972754E-01 -0.51262877E-02
    4    2   -0.12583062E-03  0.15952449E-03
    5    2   -0.76038170E-02 -0.27985038E-05
    6    2   -0.45350637E-02  0.95378625E-03
    1    3   -0.85242060E-04 -0.27290500E-03
    2    3   -0.14116029E-01 -0.54765002E-02
    3    3   -0.32487966E-01  0.47017285E-03
    4    3   -0.15799216E-03  0.17209115E-03
    5    3   -0.15364132E-01  0.49727237E-03
    6    3   -0.44920591E-01  0.94402536E-02
    1    4   -0.14790063E-02  0.10237272E-03
    2    4    0.78282810E-04  0.22449333E-03
    3    4    0.44560228E-02  0.46764442E-02
    4    4    0.23774374E-01 -0.39564766E-03
    5    4    0.31203394E-04  0.15316005E-03
    6    4    0.21498407E-03  0.39448444E-04
    1    5   -0.66103472E-05  0.23619440E-03
    2    5    0.55909201E-02  0.12552601E-02
    3    5   -0.39557665E-01 -0.14827966E-01
    4    5   -0.11535055E-03 -0.92925847E-04
    5    5    0.31330279E-02  0.24769413E-03
    6    5    0.45030683E-02 -0.26131832E-02
    1    6   -0.13081149E-03 -0.19801088E-03
    2    6    0.14339624E-02  0.84656368E-03
    3    6   -0.12264467E+00 -0.51021355E-01
    4    6   -0.24655252E-03  0.67240445E-04
    5    6    0.51902712E-03 -0.58369894E-03
    6    6    0.70451395E-02  0.17531303E-02

   -3   -1    0
    1    1   -0.43759095E-02  0.38079915E-03
    2    1   -0.10482421E-03  0.21419495E-05
    3    1   -0.27675227E-03 -0.30170545E-02
    4    1   -0.22983430E-01 -0.10412568E-01
    5    1    0.24859014E-03  0.12870844E-04
    6    1   -0.83138198E-04 -0.42792352E-04
    1    2   -0.43326831E-04 -0.56660498E-04
    2    2    0.64138161E-02  0.18433279E-02
    3    2    0.11841821E+00  0.25404051E-01
    4    2    0.20481592E-03 -0.12489879E-03
    5    2   -0.11158320E-02  0.62554496E-03
    6    2    0.14330056E-02  0.34326954E-03
    1    3   -0.40116143E-03  0.67895411E-03
    2    3    0.46002552E-01 -0.52334268E-03
    3    3   -0.32456208E-01  0.71869945E-03
    4    3   -0.61957405E-03  0.30294639E-03
    5    3   -0.26566274E-01 -0.11075634E-02
    6    3    0.70455830E-02  0.30686082E-02
    1    4   -0.31718782E-02  0.97635561E-02
    2    4   -0.35413128E-05 -0.88013757E-04
    3    4    0.31597614E-02  0.42797757E-02
    4    4    0.23774151E-01 -0.38518686E-03
    5    4    0.69745057E-04  0.17037064E-03
    6    4   -0.69926260E-04 -0.98019471E-04
    1    5    0.46718820E-03 -0.32247539E-03
    2    5   -0.48099774E-02  0.13855303E-02
    3    5   -0.64233695E-01 -0.18532523E-01
    4    5   -0.19011345E-04 -0.96091099E-04
    5    5    0.36015926E-02  0.12360301E-03
    6    5   -0.52949047E-02 -0.25242462E-03
    1    6   -0.89430040E-05 -0.19396865E-04
    2    6   -0.42240220E-02 -0.21145018E-03
    3    6    0.98897359E-01  0.26319467E-01
    4    6    0.34582434E-03  0.35771888E-04
    5    6    0.82711560E-02  0.22020746E-02
    6    6   -0.14694146E-02 -0.26812426E-02

   -3    0    0
    1    1    0.10733944E-01  0.11179040E-05
    2    1    0.43334179E-04  0.79288601E-04
    3    1   -0.17403241E-03  0.50752434E-03
    4    1   -0.87468284E-02 -0.30094621E-02
    5    1   -0.32479840E-04  0.97619558E-04
    6    1    0.13762126E-04  0.12450316E-03
    1    2    0.13512732E-03  0.16123643E-03
    2    2   -0.30218017E-03  0.97758426E-03
    3    2   -0.68026582E-01  0.10096903E-01
    4    2    0.94482292E-04  0.17830139E-04
    5    2    0.11846641E-02 -0.27090983E-03
    6    2    0.38797601E-03 -0.11202889E-02
    1    3    0.15640379E-03  0.24996773E-03
    2    3   -0.18320377E-01 -0.59237910E-02
    3    3    0.13577702E-01 -0.30398927E-04
    4    3    0.76813825E-03 -0.15650822E-03
    5    3    0.39507423E-01 -0.40738851E-02
    6    3    0.16520413E-01  0.25149753E-02
    1    4   -0.14440825E-02  0.58631511E-04
    2    4    0.89129610E-04  0.37313470E-04
    3    4    0.24469523E-03 -0.16405368E-02
    4    4    0.18461801E-01 -0.53875735E-05
    5    4   -0.13696363E-03 -0.11473898E-03
    6    4    0.17033425E-03  0.74091662E-04
    1    5    0.16407169E-03  0.14182795E-03
    2    5   -0.33745739E-02 -0.19993617E-03
    3    5    0.86974109E-01  0.17844118E-01
    4    5   -0.11998340E-03 -0.40055316E-04
    5    5   -0.62939101E-03 -0.87686697E-03
    6    5    0.36398553E-02 -0.10439707E-02
    1    6    0.39648991E-04 -0.86061032E-04
    2    6    0.38721416E-02  0.12597181E-02
    3    6    0.21150747E-02 -0.18382174E-01
    4    6   -0.10021925E-03 -0.97039176E-04
    5    6   -0.55682133E-03  0.10288207E-02
    6    6   -0.33069638E-02 -0.66048694E-04

   -3    1    0
    1    1    0.10908125E-01  0.45435840E-04
    2    1    0.71856764E-04 -0.21525597E-04
    3    1    0.14112005E-04 -0.10218556E-03
    4    1    0.34250450E-02  0.18860827E-02
    5    1    0.51317371E-04  0.68018486E-04
    6    1   -0.23688854E-04 -0.13282817E-03
    1    2   -0.59461337E-04  0.10404133E-03
    2    2    0.89011090E-03  0.68791532E-03
    3    2    0.75932611E-01  0.16222565E-03
    4    2    0.79779330E-04 -0.92419790E-04
    5    2   -0.15049124E-02 -0.13336256E-02
    6    2   -0.16808846E-03  0.85574202E-04
    1    3    0.74889123E-04 -0.14232954E-03
    2    3   -0.46360919E-02  0.21126597E-02
    3    3    0.13014257E-01  0.74062032E-03
    4    3    0.22245713E-03 -0.40854310E-03
    5    3   -0.28339838E-02  0.31584464E-02
    6    3   -0.26705057E-01  0.34044429E-02
    1    4   -0.22989826E-01  0.10405032E-01
    2    4   -0.36127432E-04 -0.24625904E-04
    3    4   -0.11929870E-02  0.89338595E-04
    4    4    0.46556599E-02 -0.41125072E-04
    5    4   -0.97552307E-05 -0.51095295E-06
    6    4    0.30473286E-04 -0.33464921E-04
    1    5    0.77041211E-04 -0.21749403E-03
    2    5   -0.78324670E-03  0.26272088E-03
    3    5   -0.52076089E-01 -0.38466445E-02
    4    5    0.28059296E-05  0.12743517E-04
    5    5    0.36748314E-02 -0.56782861E-03
    6    5    0.32321202E-02 -0.95779015E-03
    1    6    0.93508403E-04 -0.26603178E-03
    2    6    0.51081557E-03 -0.36926321E-03
    3    6    0.37290852E-01  0.10856968E-01
    4    6   -0.37151630E-04  0.78292853E-04
    5    6   -0.28130438E-02  0.65542237E-03
    6    6    0.20807640E-02 -0.86501780E-03

   -3    2    0
    1    1   -0.30452618E-02 -0.27047190E-04
    2    1   -0.68129015E-04  0.23577129E-04
    3    1    0.27994087E-04  0.15697259E-03
    4    1    0.38938553E-02 -0.20842857E-02
    5    1   -0.82907064E-04  0.91047643E-05
    6    1    0.92448902E-06 -0.25791696E-04
    1    2   -0.33261052E-04 -0.79566963E-04
    2    2    0.12539502E-02 -0.42419993E-03
    3    2   -0.23617499E-01  0.21539125E-02
    4    2   -0.80013092E-04  0.37100267E-04
    5    2    0.13858681E-02  0.50883614E-03
    6    2    0.13591705E-02 -0.34013642E-04
    1    3    0.23057811E-04 -0.46315342E-03
    2    3    0.11863570E-01 -0.21812088E-02
    3    3    0.89192491E-02  0.11386755E-03
    4    3   -0.40616805E-03  0.21796157E-03
    5    3   -0.14819445E-01 -0.47683025E-02
    6    3    0.85042699E-02 -0.58384283E-03
    1    4   -0.50698305E-02  0.29156259E-02
    2    4   -0.37216791E-04 -0.30851299E-04
    3    4    0.69111151E-03  0.15446737E-03
    4    4   -0.40369796E-02  0.24130863E-04
    5    4   -0.23895818E-04 -0.37928065E-04
    6    4   -0.48280237E-04  0.10831477E-04
    1    5   -0.20035520E-04  0.12971580E-03
    2    5   -0.23263019E-02 -0.17644732E-02
    3    5   -0.36783201E-02  0.48561558E-02
    4    5    0.59901034E-04 -0.67909235E-05
    5    5   -0.42938737E-03 -0.24962429E-04
    6    5   -0.72502104E-03  0.99545187E-03
    1    6   -0.35545518E-04 -0.17906586E-04
    2    6   -0.77340149E-03 -0.32287690E-03
    3    6   -0.44907826E-01 -0.92769997E-02
    4    6    0.10751778E-04 -0.53822655E-04
    5    6    0.59507334E-03 -0.15812736E-02
    6    6    0.11525128E-02  0.33821113E-03

   -2   -5    0
    1    1   -0.30448955E-02 -0.27131472E-04
    2    1   -0.76774544E-04 -0.14368333E-03
    3    1    0.31359934E-03  0.22869547E-03
    4    1   -0.34969407E-02 -0.20228521E-02
    5    1   -0.30186940E-06  0.67588571E-04
    6    1    0.21521757E-04 -0.64863753E-04
    1    2    0.64226381E-04 -0.62825158E-05
    2    2   -0.41955334E-03 -0.82679260E-04
    3    2   -0.24773540E-01  0.70465020E-02
    4    2   -0.68113622E-04 -0.18400310E-04
    5    2    0.66506027E-03 -0.93551551E-03
    6    2    0.23240400E-02  0.12032817E-02
    1    3    0.22790113E-04 -0.27892700E-03
    2    3    0.64052593E-02 -0.11180785E-01
    3    3    0.89636045E-02  0.14002091E-03
    4    3   -0.53688236E-04 -0.10359419E-05
    5    3   -0.15933057E-01 -0.77845115E-02
    6    3    0.12583206E-01  0.42626563E-02
    1    4    0.10706001E-01 -0.59184703E-02
    2    4    0.36620166E-04  0.19170621E-04
    3    4    0.32121357E-03 -0.40472267E-03
    4    4   -0.40385440E-02  0.24063180E-04
    5    4    0.17176778E-04  0.97698956E-05
    6    4   -0.38283089E-04  0.70832938E-05
    1    5    0.68722546E-05  0.18599318E-04
    2    5   -0.35387613E-03  0.18446310E-02
    3    5   -0.68441533E-02  0.41019002E-02
    4    5    0.47850992E-04 -0.84456294E-05
    5    5    0.11090275E-02  0.31952482E-03
    6    5   -0.10404278E-02  0.82725121E-04
    1    6    0.66144495E-05 -0.87507682E-05
    2    6   -0.13137567E-02 -0.63461708E-03
    3    6   -0.36534718E-01 -0.10575015E-01
    4    6   -0.35692231E-04 -0.15679763E-04
    5    6    0.14193280E-02  0.66152400E-03
    6    6    0.12444442E-02 -0.37379818E-03

   -2   -4    0
    1    1    0.15946610E-01  0.32512910E-03
    2    1   -0.13931068E-03 -0.16730919E-03
    3    1   -0.46377727E-03 -0.14082589E-02
    4    1   -0.19318132E-01 -0.11347596E-01
    5    1    0.14433740E-03 -0.74092609E-04
    6    1   -0.12669723E-03 -0.13030326E-03
    1    2    0.82735493E-04 -0.40512615E-04
    2    2   -0.35537306E-02  0.15446186E-02
    3    2   -0.57247426E-02 -0.46751320E-02
    4    2    0.36954905E-04  0.36852755E-04
    5    2    0.10793609E-02  0.65257646E-03
    6    2   -0.59849571E-02  0.22214281E-02
    1    3    0.13133580E-03 -0.23346565E-04
    2    3   -0.91186415E-02 -0.20939864E-02
    3    3   -0.12802250E-01  0.39586435E-03
    4    3    0.13826497E-03 -0.39831238E-03
    5    3    0.12112648E-01 -0.17864909E-02
    6    3    0.13871127E-01  0.24540338E-02
    1    4   -0.50705015E-02  0.29104802E-02
    2    4    0.52823102E-04  0.39968492E-04
    3    4   -0.48539424E-03 -0.96489927E-04
    4    4    0.12830857E-01 -0.32551672E-03
    5    4   -0.41563235E-04  0.56302474E-04
    6    4    0.60101789E-05 -0.39422517E-04
    1    5    0.21911651E-04 -0.12777932E-03
    2    5    0.67389326E-03  0.62617094E-03
    3    5    0.32482783E-01 -0.86970386E-02
    4    5   -0.34544375E-04 -0.14500174E-04
    5    5   -0.26107914E-02  0.10191131E-02
    6    5   -0.50627135E-02  0.18118603E-02
    1    6    0.24737645E-04 -0.80422930E-04
    2    6   -0.11429759E-02 -0.19855653E-03
    3    6    0.23888362E-01  0.80420207E-02
    4    6    0.79920912E-05  0.14187653E-03
    5    6   -0.10630268E-02  0.45073206E-05
    6    6   -0.40115428E-02 -0.29592084E-02

   -2   -3    0
    1    1   -0.43688375E-02 -0.38467313E-03
    2    1    0.47125196E-04  0.29774768E-03
    3    1    0.55431085E-05  0.34049511E-02
    4    1   -0.14638916E-02 -0.72941521E-04
    5    1   -0.11931934E-03  0.14932547E-03
    6    1   -0.25844057E-04  0.14324735E-03
    1    2   -0.57514579E-05 -0.32482528E-05
    2    2   -0.97203484E-03  0.27349915E-02
    3    2    0.78029321E-01  0.16494109E-01
    4    2    0.55729776E-04  0.80721883E-04
    5    2   -0.90672059E-03 -0.83356510E-04
    6    2   -0.52612117E-02  0.21295378E-02
    1    3   -0.31096635E-03  0.24966607E-04
    2    3   -0.28080778E-01  0.73285260E-03
    3    3   -0.32097568E-01 -0.50395810E-03
    4    3   -0.35035511E-03  0.58258698E-03
    5    3   -0.14898327E-01 -0.61926992E-03
    6    3   -0.25182535E-01  0.15733442E-02
    1    4   -0.26069334E-01  0.17353938E-01
    2    4    0.27442378E-03  0.22099192E-03
    3    4    0.21420367E-02  0.28853021E-02
    4    4    0.23764030E-01  0.38584179E-03
    5    4   -0.17535214E-03 -0.15478669E-03
    6    4    0.78924263E-04  0.38084659E-04
    1    5    0.38528425E-04  0.26563741E-03
    2    5    0.48821508E-02  0.44705508E-04
    3    5   -0.56513892E-02  0.19697879E-01
    4    5   -0.17569826E-03 -0.36811418E-04
    5    5    0.58339738E-02 -0.18996519E-02
    6    5    0.52151885E-02  0.55449675E-03
    1    6   -0.74147366E-04  0.33392475E-04
    2    6    0.84974294E-02  0.10676853E-02
    3    6    0.67290019E-01  0.62802870E-02
    4    6    0.68800079E-04 -0.26127622E-03
    5    6    0.37880074E-04  0.46962317E-03
    6    6    0.33284639E-02 -0.33255014E-03

   -2   -2    0
    1    1   -0.11761662E+00 -0.26268385E-04
    2    1    0.21715041E-03 -0.49542983E-03
    3    1    0.21706091E-02 -0.16161818E-02
    4    1    0.32567793E-01  0.12675129E-01
    5    1   -0.71477110E-04  0.23339563E-03
    6    1    0.59684579E-04 -0.33367680E-04
    1    2    0.18394121E-03 -0.77156437E-03
    2    2   -0.23340993E-02 -0.48672075E-03
    3    2    0.76668900E-01 -0.62012172E-01
    4    2    0.12410661E-03 -0.39511919E-03
    5    2    0.16482150E-01 -0.13867578E-02
    6    2    0.26958192E-01 -0.14581189E-01
    1    3   -0.52619101E-05  0.53568480E-03
    2    3    0.34577387E-01  0.98346270E-02
    3    3    0.93912474E-02 -0.49917056E-03
    4    3   -0.28770621E-03  0.12449404E-03
    5    3   -0.27012358E-01  0.38745208E-02
    6    3    0.62341163E-02 -0.55820792E-02
    1    4    0.32585775E-01 -0.12685127E-01
    2    4   -0.20914323E-03 -0.26141910E-03
    3    4   -0.39399935E-02 -0.93615140E-02
    4    4   -0.48447774E-01  0.23255897E-04
    5    4    0.32151633E-03  0.23158115E-03
    6    4    0.46250922E-03  0.32787943E-03
    1    5    0.24150118E-03 -0.48384454E-03
    2    5   -0.22912641E-01 -0.10734917E-01
    3    5    0.12121178E-01 -0.59417387E-01
    4    5    0.40723007E-03 -0.22491204E-03
    5    5    0.28035523E-01 -0.89368059E-03
    6    5    0.65576909E-01 -0.85876338E-02
    1    6    0.38258924E-03 -0.18215248E-03
    2    6   -0.14598066E-01 -0.43400374E-02
    3    6   -0.66365903E-01  0.59872978E-01
    4    6    0.19152922E-03  0.16185262E-03
    5    6    0.32176024E-01  0.46338776E-02
    6    6    0.35816870E-01  0.18825844E-02

   -2   -1    0
    1    1   -0.77269340E-01 -0.77992632E-03
    2    1   -0.44329786E-03 -0.74042500E-04
    3    1   -0.41101967E-02  0.92721394E-03
    4    1    0.32557042E-01  0.12667306E-01
    5    1   -0.13336860E-03 -0.13514704E-03
    6    1    0.29200028E-03  0.40153553E-03
    1    2    0.82043919E-03  0.62929915E-03
    2    2    0.42863633E-02  0.56061127E-02
    3    2   -0.18683058E+00  0.24266633E+00
    4    2   -0.22875473E-03 -0.86955066E-04
    5    2    0.64042177E-02 -0.56296504E-02
    6    2    0.20685111E-01 -0.52241386E-02
    1    3    0.91724196E-03 -0.90816087E-03
    2    3   -0.34945510E-01  0.26119916E-02
    3    3    0.22166474E+00 -0.23537866E-02
    4    3    0.15001613E-02 -0.62900639E-03
    5    3    0.76391819E-01 -0.32407766E-02
    6    3    0.46099352E-01 -0.11062222E-01
    1    4    0.22691165E+00 -0.12784716E+00
    2    4   -0.19745548E-04 -0.20189948E-03
    3    4   -0.15863876E-01 -0.55447722E-02
    4    4   -0.59175678E-01  0.78652018E-03
    5    4   -0.82288784E-04 -0.63311486E-03
    6    4   -0.17795211E-03  0.46629802E-04
    1    5   -0.14112856E-02 -0.13383949E-03
    2    5    0.13309509E-01  0.14590081E-01
    3    5   -0.11517151E+01  0.27388305E+00
    4    5   -0.11242948E-02  0.11914719E-02
    5    5   -0.12291722E-01 -0.89383431E-02
    6    5   -0.22903134E-01 -0.12064297E-01
    1    6    0.15184657E-03  0.80174826E-03
    2    6    0.20841686E-01  0.46197523E-02
    3    6   -0.38619111E-03 -0.21336164E+00
    4    6   -0.65726998E-03 -0.23801997E-03
    5    6   -0.11253213E-01  0.10454596E-02
    6    6    0.61097666E-02  0.56794230E-02

   -2    0    0
    1    1   -0.11762737E+00  0.58213054E-05
    2    1    0.33754389E-04 -0.15724702E-03
    3    1    0.28809580E-02  0.15774485E-02
    4    1   -0.14738366E-02 -0.83053417E-04
    5    1   -0.10658799E-03  0.25582741E-03
    6    1    0.99566347E-04 -0.18598660E-03
    1    2    0.11122985E-02 -0.10773104E-02
    2    2    0.23912957E-01  0.13972637E-02
    3    2    0.95833096E-01 -0.76053900E-01
    4    2   -0.47387935E-03 -0.14325143E-03
    5    2   -0.31137244E-01  0.12090123E-02
    6    2   -0.15008770E-01  0.28555400E-02
    1    3    0.52881290E-03 -0.17171377E-02
    2    3   -0.13509408E-01  0.34035185E-02
    3    3    0.11226349E-01 -0.66992630E-03
    4    3   -0.18501838E-03 -0.56219455E-03
    5    3   -0.17949124E-01  0.56395989E-02
    6    3   -0.35362799E-01 -0.23039678E-02
    1    4    0.22668526E+00 -0.12767300E+00
    2    4   -0.54526630E-03 -0.20192172E-03
    3    4   -0.81828529E-02 -0.33305854E-02
    4    4   -0.48434561E-01  0.56867155E-05
    5    4    0.65620714E-03  0.20127648E-03
    6    4    0.11263801E-03  0.65470926E-04
    1    5   -0.16528534E-02  0.86033996E-03
    2    5   -0.68690649E-01 -0.35737236E-02
    3    5    0.36745927E-01 -0.54839648E-01
    4    5    0.86286737E-03 -0.14660480E-03
    5    5    0.38082102E-01 -0.14859974E-02
    6    5    0.26336678E-01  0.44530183E-02
    1    6    0.33293345E-03 -0.10685418E-02
    2    6    0.19690243E-01 -0.50239130E-02
    3    6   -0.31238446E-01  0.51169360E-01
    4    6   -0.34120590E-03  0.45735894E-03
    5    6   -0.15744183E-01 -0.78128429E-03
    6    6   -0.23143249E-02  0.74715202E-03

   -2    1    0
    1    1   -0.43793492E-02 -0.38766418E-03
    2    1   -0.11759967E-03  0.51968776E-04
    3    1   -0.10311660E-02 -0.90679235E-03
    4    1   -0.19319804E-01 -0.11343702E-01
    5    1    0.21577767E-03 -0.13961899E-03
    6    1   -0.31257716E-04  0.12436610E-03
    1    2   -0.83042795E-04 -0.63772986E-04
    2    2    0.32087864E-02 -0.51195137E-03
    3    2   -0.77719042E-01  0.11428984E-01
    4    2   -0.97060451E-04  0.23131323E-03
    5    2   -0.95318969E-03 -0.52065350E-03
    6    2    0.74483240E-02 -0.21805588E-02
    1    3   -0.38664495E-03  0.10552616E-04
    2    3    0.21240985E-01  0.33373293E-02
    3    3   -0.32591769E-01 -0.35981328E-03
    4    3   -0.86731296E-03  0.74975610E-03
    5    3   -0.24056738E-01 -0.18953817E-02
    6    3    0.21606640E-01 -0.61194105E-02
    1    4    0.32524942E-01 -0.12627830E-01
    2    4    0.62915110E-04  0.54612808E-05
    3    4    0.42290463E-02  0.20882202E-02
    4    4    0.23780821E-01  0.38227425E-03
    5    4   -0.22226550E-03 -0.42631631E-04
    6    4   -0.28462800E-03 -0.87618758E-04
    1    5   -0.11173479E-03 -0.46401757E-03
    2    5   -0.39164067E-02 -0.19050451E-02
    3    5    0.15977712E-01  0.19818023E-01
    4    5    0.66147284E-04  0.43462514E-04
    5    5    0.74290527E-02 -0.17402460E-02
    6    5   -0.46224762E-02  0.33852262E-03
    1    6   -0.34127159E-03  0.63207531E-03
    2    6   -0.52552910E-02 -0.28784423E-03
    3    6   -0.80343858E-01 -0.31176050E-01
    4    6    0.12889369E-03 -0.84734220E-04
    5    6    0.23008061E-02 -0.51465020E-03
    6    6   -0.19595131E-02  0.26174006E-02

   -2    2    0
    1    1    0.15950669E-01  0.32080740E-03
    2    1    0.82084683E-04  0.12713228E-03
    3    1    0.35891390E-03  0.32655296E-03
    4    1   -0.34977185E-02 -0.20279370E-02
    5    1   -0.72148301E-04  0.70936462E-04
    6    1    0.49007409E-04  0.10532729E-03
    1    2   -0.92196897E-04  0.14935247E-03
    2    2   -0.37886008E-02 -0.31885704E-02
    3    2   -0.17784693E-01 -0.61982766E-02
    4    2    0.19298118E-03 -0.37104549E-04
    5    2    0.16807452E-02  0.45143423E-03
    6    2   -0.12973459E-02 -0.16185008E-04
    1    3    0.38726552E-04  0.51984591E-03
    2    3   -0.10483174E-01 -0.35852934E-02
    3    3   -0.12782266E-01  0.39058150E-03
    4    3    0.43919276E-03 -0.35911497E-03
    5    3    0.13523439E-01 -0.13890674E-02
    6    3    0.12020399E-01  0.39868666E-03
    1    4   -0.26056291E-01  0.17338668E-01
    2    4    0.44216155E-04  0.14080443E-04
    3    4   -0.79305622E-03 -0.80869102E-03
    4    4    0.12824302E-01 -0.32126863E-03
    5    4    0.33822889E-05  0.59678865E-04
    6    4    0.40223388E-04 -0.22140621E-04
    1    5    0.10365181E-03  0.17667526E-03
    2    5    0.61528671E-02 -0.18603053E-03
    3    5    0.35326022E-01 -0.84401757E-02
    4    5   -0.12653284E-03 -0.32208375E-04
    5    5   -0.34679062E-02  0.15058142E-02
    6    5   -0.79622729E-03 -0.74675530E-03
    1    6   -0.15059038E-04  0.16843530E-03
    2    6   -0.53856633E-02 -0.24826656E-03
    3    6    0.13346723E-01  0.51335978E-02
    4    6    0.17939309E-04  0.17348604E-04
    5    6   -0.44703086E-04 -0.76504364E-03
    6    6   -0.29370456E-02  0.12926360E-02

   -2    3    0
    1    1   -0.30435313E-02 -0.26444484E-04
    2    1    0.82437487E-04 -0.14615357E-03
    3    1   -0.26336699E-03 -0.17190317E-03
    4    1    0.38943530E-02 -0.20828394E-02
    5    1    0.64240794E-04 -0.33053587E-04
    6    1   -0.23152186E-04  0.10856981E-03
    1    2   -0.55688863E-04  0.11448490E-03
    2    2    0.12921029E-02 -0.33540235E-03
    3    2    0.38606583E-01  0.40272306E-02
    4    2   -0.13884776E-04 -0.36456498E-04
    5    2   -0.13238781E-02  0.13508751E-04
    6    2   -0.18365178E-02 -0.38740285E-03
    1    3    0.67496039E-05 -0.18896989E-04
    2    3   -0.15609408E-01 -0.95716255E-02
    3    3    0.89267249E-02  0.11359569E-03
    4    3    0.16594519E-04  0.17985491E-03
    5    3   -0.11657279E-01 -0.66004056E-02
    6    3   -0.45058200E-02  0.11111865E-01
    1    4   -0.50707541E-02  0.29064340E-02
    2    4   -0.49983501E-04 -0.26399676E-05
    3    4   -0.17193686E-03  0.45910501E-03
    4    4   -0.40405299E-02  0.29739287E-04
    5    4   -0.11933668E-05 -0.47820851E-04
    6    4   -0.60963904E-05 -0.24076727E-04
    1    5    0.63537453E-04 -0.85476000E-04
    2    5    0.67757116E-03 -0.18168613E-03
    3    5   -0.19050050E-01  0.53822328E-02
    4    5    0.62424521E-05  0.79714608E-06
    5    5    0.12476954E-02  0.40894412E-03
    6    5    0.42208967E-03 -0.15894793E-02
    1    6   -0.14893536E-04 -0.42808273E-04
    2    6    0.19268638E-02  0.22688175E-02
    3    6    0.19167374E-01 -0.13977972E-02
    4    6    0.20566340E-04  0.24325766E-05
    5    6   -0.93823020E-03  0.55976197E-03
    6    6   -0.56837858E-03 -0.19043226E-03

   -1   -5    0
    1    1   -0.21742995E-02  0.19383800E-04
    2    1   -0.63112926E-04  0.78433838E-04
    3    1    0.13287886E-03 -0.73234498E-04
    4    1    0.34265195E-02  0.18842104E-02
    5    1   -0.10176020E-03 -0.73292330E-04
    6    1    0.42817659E-04 -0.79599700E-04
    1    2   -0.55716458E-05 -0.27694580E-05
    2    2   -0.13418702E-02 -0.83910008E-03
    3    2   -0.10747459E-02 -0.34158748E-02
    4    2    0.13347361E-04  0.10645132E-04
    5    2   -0.36320583E-03  0.49849852E-03
    6    2   -0.88066876E-03  0.59015849E-03
    1    3    0.17720587E-03  0.19482708E-03
    2    3   -0.12791647E-01 -0.84332851E-02
    3    3   -0.11320101E-01 -0.85217906E-04
    4    3   -0.33499855E-04 -0.26035240E-03
    5    3    0.60991149E-02 -0.97860200E-02
    6    3    0.15758707E-01  0.51390563E-02
    1    4    0.87418015E-02 -0.35033014E-02
    2    4   -0.26989354E-04 -0.43288788E-04
    3    4   -0.50982394E-03 -0.21749062E-03
    4    4   -0.10661363E-01 -0.19520486E-04
    5    4    0.11094731E-03  0.58454139E-04
    6    4    0.47095557E-04  0.28298113E-04
    1    5   -0.96602924E-04  0.11483885E-03
    2    5    0.55296630E-03  0.55239387E-03
    3    5    0.26642861E-01 -0.12048321E-02
    4    5    0.62827645E-04 -0.23295211E-04
    5    5   -0.20658551E-02  0.18590078E-02
    6    5   -0.52013607E-03  0.68932250E-04
    1    6    0.45903851E-04  0.29210760E-04
    2    6   -0.87509172E-03  0.40409491E-04
    3    6    0.68942711E-02  0.31926611E-02
    4    6   -0.10001342E-04  0.22317305E-04
    5    6    0.48465715E-03 -0.20115130E-03
    6    6   -0.12889654E-02 -0.93455317E-03

   -1   -4    0
    1    1    0.10911122E-01  0.49547093E-04
    2    1   -0.43685079E-04  0.96058259E-04
    3    1   -0.50110779E-03 -0.41991218E-03
    4    1   -0.19321322E-01 -0.11340289E-01
    5    1    0.11422862E-03  0.20630815E-03
    6    1    0.36199933E-04  0.23536993E-03
    1    2    0.61659462E-05 -0.82924620E-04
    2    2    0.34075590E-02 -0.59308826E-03
    3    2    0.21825903E-01 -0.32542846E-02
    4    2   -0.34021530E-04  0.15342378E-04
    5    2   -0.32461434E-02  0.71011175E-03
    6    2    0.45540715E-03 -0.63106705E-03
    1    3   -0.10010387E-03 -0.11842285E-03
    2    3   -0.86232683E-02  0.40480269E-02
    3    3    0.13077463E-01  0.76861504E-03
    4    3    0.21353725E-03  0.17564284E-03
    5    3   -0.41294802E-02  0.47275766E-02
    6    3   -0.19766725E-01 -0.25340104E-03
    1    4    0.87375502E-02 -0.35016633E-02
    2    4    0.66651304E-04  0.13239827E-04
    3    4    0.25605635E-03  0.54476404E-03
    4    4    0.46524805E-02 -0.46165703E-04
    5    4   -0.27461937E-04 -0.73206671E-04
    6    4   -0.36674019E-04 -0.21839542E-04
    1    5   -0.55139353E-04  0.11828962E-03
    2    5    0.24624933E-02 -0.12083579E-02
    3    5   -0.28870468E-01 -0.10641058E-02
    4    5   -0.13202030E-03  0.31978374E-04
    5    5    0.21273710E-02 -0.78791816E-03
    6    5    0.61497095E-03 -0.59712391E-03
    1    6   -0.66378590E-04  0.41054341E-04
    2    6    0.17225045E-02  0.17397908E-02
    3    6    0.16845192E-01  0.25782474E-02
    4    6    0.75696850E-04 -0.81718573E-04
    5    6   -0.16572837E-03 -0.12671435E-03
    6    6    0.10477531E-02  0.60900999E-03

   -1   -3    0
    1    1   -0.43794343E-02 -0.39394487E-03
    2    1    0.17639201E-03 -0.14707696E-04
    3    1    0.14351024E-02  0.38626146E-02
    4    1   -0.31896122E-02 -0.97560401E-02
    5    1    0.39754090E-05  0.12008986E-03
    6    1    0.19722727E-03  0.21403431E-04
    1    2   -0.67297368E-04  0.14442841E-03
    2    2    0.73364348E-02 -0.17991184E-02
    3    2   -0.27200864E-01 -0.86880870E-02
    4    2    0.16211927E-04 -0.12857574E-03
    5    2    0.35007905E-02  0.66528686E-03
    6    2    0.49091396E-02  0.74831161E-03
    1    3   -0.10429257E-03  0.36254459E-03
    2    3    0.15780181E-01 -0.57874210E-02
    3    3   -0.32546276E-01 -0.60601604E-03
    4    3   -0.30512118E-03  0.16516784E-03
    5    3   -0.10407600E-01 -0.61192208E-02
    6    3    0.14140027E-01 -0.25964580E-03
    1    4   -0.22985940E-01  0.10405231E-01
    2    4   -0.20481150E-04 -0.95261716E-04
    3    4    0.19228824E-03 -0.53148945E-03
    4    4    0.23774449E-01  0.39170337E-03
    5    4   -0.13093013E-03  0.68527131E-04
    6    4   -0.19998947E-04  0.11479832E-03
    1    5    0.24225011E-03 -0.27481218E-03
    2    5   -0.23419095E-02  0.10627619E-02
    3    5    0.35713579E-01  0.35863281E-04
    4    5    0.29738060E-04  0.61609079E-04
    5    5   -0.20752361E-02  0.26323390E-02
    6    5   -0.53874730E-02  0.19340883E-02
    1    6    0.43021909E-04  0.18548357E-03
    2    6    0.13444773E-02  0.75536506E-03
    3    6   -0.51041723E-01 -0.86075009E-03
    4    6   -0.69118051E-04 -0.55883010E-05
    5    6    0.72961002E-02  0.78757167E-03
    6    6    0.33780909E-02 -0.22496309E-03

   -1   -2    0
    1    1   -0.77289550E-01  0.76201417E-03
    2    1    0.88382318E-03  0.15633322E-02
    3    1   -0.11176548E-02 -0.10972384E-01
    4    1    0.22670941E+00  0.12762841E+00
    5    1   -0.70195858E-03 -0.18837051E-02
    6    1    0.19929574E-03 -0.33092854E-04
    1    2   -0.24603915E-04  0.44053636E-03
    2    2    0.10092801E-02 -0.61983113E-02
    3    2   -0.43654962E-01 -0.81918929E-02
    4    2   -0.58171412E-04 -0.36921355E-04
    5    2   -0.20971765E-01  0.94965148E-03
    6    2   -0.16938809E-01  0.18752787E-01
    1    3    0.72060580E-03 -0.80807015E-03
    2    3    0.33167905E-01  0.24919644E-02
    3    3    0.22088373E+00  0.33653893E-02
    4    3    0.92202061E-03 -0.12133104E-02
    5    3    0.48380542E-01  0.85303085E-02
    6    3    0.31909837E-01 -0.13110396E-01
    1    4    0.32542882E-01 -0.12671325E-01
    2    4   -0.10594577E-02 -0.45726021E-03
    3    4   -0.25955842E-02 -0.20165275E-02
    4    4   -0.59160540E-01 -0.75762866E-03
    5    4    0.82035779E-03  0.25949687E-03
    6    4   -0.31973014E-03 -0.82631306E-03
    1    5   -0.46013031E-03  0.14230851E-03
    2    5   -0.20773451E-01 -0.13901427E-02
    3    5   -0.91454702E-01 -0.11537983E-01
    4    5    0.10414570E-03 -0.23675991E-03
    5    5    0.10387058E-01 -0.62305859E-02
    6    5   -0.13852127E-01  0.14205468E-01
    1    6   -0.31259559E-03 -0.18514870E-03
    2    6   -0.92529176E-02 -0.63273473E-02
    3    6   -0.11992667E+00 -0.52015596E-01
    4    6   -0.34156671E-04  0.38175147E-03
    5    6   -0.62249961E-02 -0.57092823E-02
    6    6   -0.12505851E-01  0.90591224E-02

   -1   -1    0
    1    1    0.13377439E+00  0.60369968E-04
    2    1    0.13602440E-02 -0.13979815E-03
    3    1   -0.16520217E-02  0.42887843E-03
    4    1    0.11775649E+00  0.69824914E-01
    5    1   -0.11126082E-03 -0.14339166E-03
    6    1   -0.16989709E-02  0.36225767E-03
    1    2   -0.92161852E-03 -0.15880134E-03
    2    2   -0.18498565E+00 -0.61757436E-02
    3    2   -0.12732055E+01  0.31663032E+00
    4    2   -0.62385594E-03  0.52528127E-03
    5    2    0.18726978E+00 -0.79273482E-01
    6    2    0.57087840E+00 -0.12394702E+00
    1    3   -0.11953468E-02  0.17233452E-03
    2    3   -0.82766976E-02 -0.18955153E-01
    3    3   -0.82649111E+00  0.54777794E-03
    4    3   -0.27879724E-02  0.90782321E-03
    5    3   -0.62680861E-01 -0.53922580E-02
    6    3   -0.79858659E-01  0.30770558E-01
    1    4    0.11785004E+00 -0.69726893E-01
    2    4   -0.21784862E-02  0.56852230E-03
    3    4    0.12611990E-01  0.37096263E-03
    4    4   -0.46187200E+00 -0.10227041E-03
    5    4    0.28562063E-02  0.73024964E-03
    6    4    0.11620048E-02  0.13027077E-02
    1    5   -0.63118566E-03 -0.11712527E-03
    2    5   -0.45824384E+00 -0.30157333E-01
    3    5    0.89742323E-01  0.20718163E+00
    4    5    0.79304386E-02 -0.14204111E-02
    5    5    0.48650109E+00 -0.45993111E-01
    6    5    0.10661001E+01 -0.15794912E+00
    1    6    0.48308803E-03 -0.21472694E-03
    2    6   -0.16597361E+00 -0.10007534E+00
    3    6    0.10137728E+00 -0.19439405E+00
    4    6    0.20867167E-02 -0.48934660E-03
    5    6    0.20838410E+00  0.29391793E-01
    6    6    0.58289875E+00  0.51662977E-01

   -1    0    0
    1    1    0.13374808E+00  0.23129317E-05
    2    1    0.60560604E-03 -0.57768972E-03
    3    1   -0.43632631E-02 -0.89945506E-02
    4    1    0.22695731E+00  0.12781594E+00
    5    1   -0.90921888E-03 -0.14774171E-02
    6    1   -0.22734682E-03 -0.86905557E-03
    1    2   -0.54819521E-02  0.21260190E-02
    2    2    0.42590143E+00  0.41224333E-01
    3    2   -0.69475237E-01  0.24466131E+00
    4    2   -0.45606833E-02  0.10044522E-02
    5    2   -0.18179929E+00  0.52974753E-02
    6    2   -0.13541743E+00 -0.34038287E-01
    1    3   -0.23002873E-02  0.52871658E-02
    2    3    0.77291169E-01 -0.15591586E-01
    3    3   -0.83165465E+00 -0.52519672E-03
    4    3   -0.30447901E-02  0.27999505E-02
    5    3   -0.78202644E-01 -0.63952636E-02
    6    3   -0.59822114E-02  0.19206728E-01
    1    4   -0.14956815E+01  0.83220613E+00
    2    4   -0.91893036E-02 -0.14717103E-02
    3    4   -0.28332956E-02  0.79609886E-02
    4    4   -0.46181759E+00  0.33540528E-04
    5    4    0.53477786E-02  0.15579674E-04
    6    4    0.20879240E-02 -0.27090847E-03
    1    5    0.65046968E-02 -0.12025328E-02
    2    5   -0.11374498E+01 -0.81653587E-01
    3    5   -0.11005367E+00  0.20125097E+00
    4    5    0.95384899E-02 -0.16810203E-02
    5    5    0.59962366E+00 -0.45372473E-01
    6    5    0.52919610E+00 -0.82509276E-01
    1    6   -0.44527711E-02  0.29476722E-02
    2    6    0.43965587E+00  0.10001594E+00
    3    6    0.11779642E+01 -0.63014461E-01
    4    6   -0.15192608E-02 -0.13762754E-02
    5    6   -0.18234543E+00  0.33452140E-01
    6    6   -0.13597545E+00  0.46374832E-02

   -1    1    0
    1    1   -0.77263241E-01  0.78883645E-03
    2    1   -0.41744228E-03 -0.15016173E-03
    3    1    0.13715167E-02  0.41029265E-02
    4    1   -0.31810929E-02 -0.97569852E-02
    5    1   -0.86534980E-04 -0.44894460E-04
    6    1   -0.32660763E-04  0.15846004E-03
    1    2    0.11590983E-03 -0.41403239E-03
    2    2   -0.11682008E-01  0.65348350E-02
    3    2    0.11500028E+00  0.22185609E-01
    4    2    0.94824887E-04 -0.21355489E-03
    5    2    0.10235088E-01  0.24456655E-02
    6    2   -0.72895093E-02 -0.24998294E-02
    1    3   -0.78938040E-04  0.21021426E-02
    2    3   -0.21551437E-01  0.99712991E-02
    3    3    0.22135054E+00  0.37523521E-02
    4    3    0.21254124E-02 -0.89577870E-03
    5    3    0.57582004E-01  0.72655489E-02
    6    3   -0.24183862E-01  0.45730720E-02
    1    4    0.11788057E+00 -0.69801964E-01
    2    4    0.10115220E-02  0.46169594E-03
    3    4   -0.23717869E-02 -0.46366720E-02
    4    4   -0.59202627E-01 -0.80507559E-03
    5    4    0.37236606E-03  0.55761183E-03
    6    4    0.73883641E-03  0.34804642E-03
    1    5   -0.10506740E-02 -0.50690613E-04
    2    5    0.21087944E-01 -0.15038016E-01
    3    5   -0.10440233E+00 -0.16870116E-01
    4    5   -0.28290751E-03 -0.19327196E-03
    5    5    0.24750158E-02 -0.54038626E-02
    6    5    0.21059659E-01 -0.38756137E-02
    1    6    0.17536099E-02 -0.60231880E-03
    2    6   -0.17310549E-01  0.10457384E-01
    3    6    0.45323080E-01  0.20926451E-01
    4    6    0.74401384E-04 -0.13505780E-03
    5    6    0.20597093E-01  0.24468778E-02
    6    6    0.76464417E-02 -0.48670852E-02

   -1    2    0
    1    1   -0.43778323E-02 -0.38770707E-03
    2    1   -0.10862177E-04 -0.18846127E-03
    3    1   -0.32087053E-03 -0.11482369E-02
    4    1   -0.19321233E-01 -0.11341128E-01
    5    1    0.12566549E-03  0.30885884E-03
    6    1   -0.18165223E-04 -0.14966977E-03
    1    2    0.55191723E-03 -0.13626476E-03
    2    2    0.32450251E-02 -0.33958324E-03
    3    2    0.58604637E-01 -0.90204649E-02
    4    2   -0.59668931E-04 -0.10918333E-03
    5    2   -0.87539815E-02  0.12001674E-02
    6    2    0.25899712E-03  0.68256897E-03
    1    3    0.58638733E-03 -0.11129310E-02
    2    3   -0.16404060E-01 -0.54734954E-02
    3    3   -0.32423374E-01 -0.82078288E-03
    4    3   -0.42660079E-03  0.75101286E-04
    5    3   -0.59759556E-02 -0.49584775E-02
    6    3   -0.14311268E-01  0.81267872E-02
    1    4    0.32556417E-01 -0.12687527E-01
    2    4   -0.40502541E-04 -0.10521821E-03
    3    4   -0.59504032E-03  0.85926658E-03
    4    4    0.23773692E-01  0.39690426E-03
    5    4    0.18854242E-04 -0.15070321E-03
    6    4    0.52798615E-04  0.14280002E-04
    1    5    0.45004737E-04  0.25443699E-03
    2    5    0.49260349E-02 -0.83151430E-03
    3    5    0.19575144E-01  0.99054395E-03
    4    5   -0.59353737E-04  0.58956502E-04
    5    5   -0.11212352E-02  0.29857436E-02
    6    5    0.11226776E-02 -0.65480925E-03
    1    6    0.11088039E-03 -0.33643878E-03
    2    6    0.38759752E-02  0.25160687E-02
    3    6    0.26279314E-01  0.14009847E-01
    4    6   -0.12780075E-03  0.38179787E-04
    5    6   -0.53281670E-02 -0.12456340E-02
    6    6    0.63917520E-02 -0.18345746E-02

   -1    3    0
    1    1    0.10907459E-01  0.43008251E-04
    2    1   -0.17455878E-04  0.84356855E-04
    3    1    0.45373873E-04  0.30752475E-03
    4    1    0.34239713E-02  0.18858576E-02
    5    1   -0.15059791E-05 -0.10559391E-03
    6    1   -0.51960383E-04 -0.81462025E-04
    1    2   -0.13623708E-03 -0.15375421E-03
    2    2    0.11349483E-02  0.76103337E-03
    3    2   -0.25065885E-01  0.18722805E-02
    4    2   -0.23455753E-04  0.79433047E-04
    5    2    0.27781962E-03 -0.27989193E-03
    6    2    0.16898749E-02  0.94445110E-03
    1    3   -0.28652275E-03 -0.97140680E-04
    2    3    0.18739855E-01  0.46136235E-02
    3    3    0.13026993E-01  0.86131036E-03
    4    3   -0.27735686E-04  0.12380710E-03
    5    3   -0.92729655E-02  0.32064396E-02
    6    3    0.46299618E-02 -0.56082179E-02
    1    4   -0.22991019E-01  0.10417542E-01
    2    4    0.94539929E-05  0.23494241E-04
    3    4    0.85059814E-03  0.78749504E-04
    4    4    0.46574989E-02 -0.47177737E-04
    5    4   -0.10232394E-03 -0.69783061E-05
    6    4   -0.38713648E-04  0.11832197E-04
    1    5    0.54000171E-04 -0.23903025E-03
    2    5   -0.78084930E-03  0.47614497E-03
    3    5   -0.19425916E-01 -0.27093677E-02
    4    5   -0.15125839E-04  0.23342060E-04
    5    5    0.21410206E-02 -0.10276953E-02
    6    5   -0.26377238E-02  0.13366451E-02
    1    6    0.41827227E-04 -0.16522866E-03
    2    6    0.11445060E-02 -0.19563318E-03
    3    6   -0.24540880E-01 -0.16342127E-02
    4    6   -0.48390650E-05 -0.15829936E-04
    5    6    0.30540607E-02  0.19055900E-03
    6    6    0.33558284E-02 -0.59047896E-03

    0   -4    0
    1    1    0.47354773E-02  0.22183114E-05
    2    1   -0.85276241E-04 -0.26926937E-03
    3    1    0.30115032E-03  0.38891908E-03
    4    1   -0.87452701E-02 -0.30032964E-02
    5    1    0.47193107E-04 -0.77525422E-04
    6    1   -0.26021855E-04 -0.30496569E-04
    1    2    0.38304894E-04  0.34192952E-04
    2    2    0.14669313E-02  0.10491938E-02
    3    2   -0.13931376E-01  0.48365086E-02
    4    2   -0.11820331E-03  0.14240701E-04
    5    2    0.20431389E-02 -0.28909003E-03
    6    2    0.17192271E-02 -0.45121877E-03
    1    3   -0.34123703E-03  0.26091736E-03
    2    3    0.12490908E-01 -0.20459724E-02
    3    3   -0.54545541E-02  0.56986544E-04
    4    3   -0.12597397E-03 -0.80957933E-04
    5    3   -0.13281592E-01 -0.26604999E-02
    6    3    0.10350058E-01  0.15334688E-02
    1    4    0.97656892E-02 -0.25611302E-02
    2    4    0.11613555E-04  0.67467936E-04
    3    4    0.31393665E-04 -0.36324896E-03
    4    4   -0.69928689E-02 -0.41507484E-05
    5    4   -0.86558871E-05  0.24514322E-04
    6    4   -0.29793755E-04  0.17267696E-04
    1    5    0.15846803E-04 -0.13637402E-03
    2    5   -0.29066060E-02  0.91100685E-03
    3    5   -0.73149338E-02  0.10026139E-02
    4    5    0.49351805E-04  0.67257526E-04
    5    5   -0.67712274E-04 -0.13997161E-03
    6    5   -0.19300304E-02  0.31848835E-04
    1    6    0.40444655E-04 -0.20332223E-04
    2    6    0.39017667E-03  0.29188190E-03
    3    6   -0.11842094E-01 -0.39574445E-02
    4    6   -0.28230982E-04  0.25288649E-04
    5    6    0.22856469E-02  0.16400799E-02
    6    6    0.13183535E-02 -0.96427631E-03

    0   -3    0
    1    1    0.10727093E-01  0.34790310E-05
    2    1   -0.57618553E-04 -0.28922586E-04
    3    1   -0.75844946E-04 -0.89077897E-03
    4    1   -0.14674499E-02 -0.98423531E-04
    5    1    0.49306366E-04 -0.13559308E-03
    6    1   -0.11502158E-03 -0.33045794E-03
    1    2    0.16773084E-03 -0.12789289E-03
    2    2   -0.58500870E-03 -0.10391527E-02
    3    2   -0.12986992E-01  0.41486854E-02
    4    2    0.27572889E-05  0.94172346E-04
    5    2   -0.41589840E-02  0.58776098E-03
    6    2    0.33305012E-02 -0.39723564E-03
    1    3    0.41015576E-03 -0.25110076E-03
    2    3   -0.58640929E-02 -0.56097192E-02
    3    3    0.13446579E-01 -0.32197667E-04
    4    3   -0.24843221E-03  0.91397607E-04
    5    3    0.14879125E-01 -0.52665226E-02
    6    3    0.18076844E-01  0.65861090E-03
    1    4   -0.87421235E-02  0.30165123E-02
    2    4    0.16175594E-03  0.51157876E-04
    3    4    0.66288749E-04  0.41091022E-03
    4    4    0.18468161E-01 -0.61909252E-05
    5    4   -0.29788254E-04  0.33841038E-04
    6    4    0.67208432E-04  0.26567678E-04
    1    5   -0.37878367E-04  0.66220002E-04
    2    5    0.18213902E-03 -0.97473555E-03
    3    5    0.15129023E-01  0.54383721E-02
    4    5   -0.37626716E-04 -0.14347847E-03
    5    5   -0.32981279E-02  0.16165080E-03
    6    5    0.36972608E-02 -0.68205313E-04
    1    6    0.24918254E-04 -0.20072891E-03
    2    6   -0.10222304E-02 -0.46143128E-03
    3    6    0.97745940E-02 -0.45385985E-02
    4    6    0.26927496E-04  0.84000335E-04
    5    6    0.46247298E-03 -0.12948968E-02
    6    6   -0.22378561E-03  0.91241150E-03

    0   -2    0
    1    1   -0.11762596E+00 -0.26992854E-04
    2    1    0.11463128E-02  0.97680602E-03
    3    1   -0.17288604E-02 -0.14018222E-02
    4    1    0.22690912E+00  0.12781414E+00
    5    1   -0.13747578E-02 -0.16950005E-03
    6    1   -0.76308368E-03 -0.56689186E-03
    1    2   -0.22298780E-03 -0.15818629E-03
    2    2    0.29390960E-01 -0.18890877E-02
    3    2    0.42334400E-01  0.11439020E-01
    4    2   -0.14494697E-03 -0.12703727E-03
    5    2   -0.26192151E-01 -0.72056798E-02
    6    2    0.66945961E-01 -0.14879068E-01
    1    3   -0.51224426E-03 -0.52496613E-04
    2    3   -0.62000319E-01 -0.47295683E-03
    3    3    0.11535750E-01 -0.33932620E-04
    4    3    0.60012190E-03 -0.34170955E-03
    5    3   -0.47657620E-01  0.25744570E-02
    6    3   -0.50860808E-01  0.22208661E-01
    1    4   -0.14607763E-02  0.70289564E-04
    2    4   -0.43229575E-03 -0.23905648E-03
    3    4   -0.18786762E-03 -0.36729547E-03
    4    4   -0.48427735E-01  0.32634306E-04
    5    4    0.11932121E-03 -0.22066852E-03
    6    4   -0.11928438E-03  0.64132318E-04
    1    5    0.49743593E-04  0.13511283E-03
    2    5    0.12308208E-01 -0.22840992E-03
    3    5   -0.60903998E-01 -0.27588090E-02
    4    5   -0.14903158E-03  0.30154576E-03
    5    5   -0.23337919E-02  0.78299448E-03
    6    5    0.17199096E-01 -0.11206087E-01
    1    6   -0.76861780E-04  0.45208621E-05
    2    6    0.31466399E-01  0.61889258E-02
    3    6    0.51434300E-01  0.11452398E-01
    4    6   -0.18133096E-03 -0.23755275E-03
    5    6   -0.19396795E-01 -0.39152384E-02
    6    6    0.32305926E-01  0.11343843E-02

    0   -1    0
    1    1    0.13382055E+00  0.12053112E-03
    2    1   -0.11138787E-01 -0.10396552E-01
    3    1    0.35571671E-02  0.11140514E-01
    4    1   -0.14956396E+01 -0.83193915E+00
    5    1    0.54896220E-02  0.43048902E-02
    6    1    0.26626787E-02  0.21739162E-02
    1    2    0.19272128E-03  0.12304963E-03
    2    2    0.47537762E+00 -0.47444179E-01
    3    2   -0.28226674E-01 -0.69998428E-02
    4    2   -0.76397729E-02  0.12458970E-02
    5    2   -0.60279583E+00  0.41208257E-01
    6    2    0.11002346E+01 -0.23132335E+00
    1    3   -0.20449418E-04  0.26404772E-02
    2    3   -0.82319092E-01  0.38598472E-02
    3    3   -0.83295212E+00 -0.73204915E-03
    4    3   -0.35160328E-03  0.31052884E-02
    5    3    0.12701446E+00 -0.36016954E-01
    6    3    0.51486457E-01 -0.22121160E-01
    1    4    0.22672684E+00 -0.12768316E+00
    2    4   -0.24865025E-02  0.10167052E-02
    3    4   -0.20294680E-02  0.12502758E-03
    4    4   -0.46187130E+00 -0.10560767E-03
    5    4    0.36860706E-02  0.38615891E-03
    6    4   -0.17066328E-02  0.11647782E-02
    1    5   -0.97765772E-03  0.85255421E-03
    2    5    0.10389908E+00 -0.50163073E-01
    3    5    0.11506337E+00  0.32839143E-01
    4    5    0.17385655E-02 -0.59671967E-03
    5    5   -0.13777344E+00  0.46850417E-02
    6    5    0.39402033E+00 -0.54438308E-01
    1    6    0.60073744E-03  0.47735909E-03
    2    6    0.18490199E+00  0.28802112E-01
    3    6    0.93172931E-01  0.28245768E-01
    4    6   -0.30572271E-02 -0.53337487E-04
    5    6   -0.20868161E+00 -0.95766934E-01
    6    6    0.55322419E+00  0.43476263E-01

    0    0    0
    1    1    0.11890033E+01 -0.62207330E-17
    2    1    0.31201564E-02  0.55178227E-02
    3    1    0.36855509E-02  0.86063574E-02
    4    1   -0.14957416E+01 -0.83233518E+00
    5    1    0.69266014E-02  0.76630374E-02
    6    1   -0.31997731E-03  0.17536527E-02
    1    2    0.31201564E-02 -0.55178227E-02
    2    2   -0.12931172E+02  0.66661133E-16
    3    2    0.59442801E-01 -0.67065199E-01
    4    2    0.14960963E-01  0.81536916E-03
    5    2   -0.33207458E+01  0.19730350E+00
    6    2    0.31799704E+01 -0.65459116E+00
    1    3    0.36855509E-02 -0.86063574E-02
    2    3    0.59442801E-01  0.67065199E-01
    3    3    0.46201803E+01  0.39595584E-16
    4    3    0.13623184E-01 -0.11528995E-01
    5    3    0.53308750E-01  0.71922972E-01
    6    3   -0.51065517E-01 -0.50658751E-01
    1    4   -0.14957416E+01  0.83233518E+00
    2    4    0.14960963E-01 -0.81536916E-03
    3    4    0.13623184E-01  0.11528995E-01
    4    4   -0.49450467E+01 -0.26210585E-16
    5    4   -0.18134430E-01 -0.38968468E-02
    6    4    0.37346096E-03 -0.31835540E-03
    1    5    0.69266014E-02 -0.76630374E-02
    2    5   -0.33207458E+01 -0.19730350E+00
    3    5    0.53308750E-01 -0.71922972E-01
    4    5   -0.18134430E-01  0.38968468E-02
    5    5   -0.12109580E+02 -0.55229133E-17
    6    5    0.28353385E+01 -0.40956532E+00
    1    6   -0.31997731E-03 -0.17536527E-02
    2    6    0.31799704E+01  0.65459116E+00
    3    6   -0.51065517E-01  0.50658751E-01
    4    6    0.37346096E-03  0.31835540E-03
    5    6    0.28353385E+01  0.40956532E+00
    6    6   -0.11976341E+02 -0.58178636E-16

    0    1    0
    1    1    0.13382055E+00 -0.12053112E-03
    2    1    0.19272128E-03 -0.12304963E-03
    3    1   -0.20449418E-04 -0.26404772E-02
    4    1    0.22672684E+00  0.12768316E+00
    5    1   -0.97765772E-03 -0.85255421E-03
    6    1    0.60073744E-03 -0.47735909E-03
    1    2   -0.11138787E-01  0.10396552E-01
    2    2    0.47537762E+00  0.47444179E-01
    3    2   -0.82319092E-01 -0.38598472E-02
    4    2   -0.24865025E-02 -0.10167052E-02
    5    2    0.10389908E+00  0.50163073E-01
    6    2    0.18490199E+00 -0.28802112E-01
    1    3    0.35571671E-02 -0.11140514E-01
    2    3   -0.28226674E-01  0.69998428E-02
    3    3   -0.83295212E+00  0.73204915E-03
    4    3   -0.20294680E-02 -0.12502758E-03
    5    3    0.11506337E+00 -0.32839143E-01
    6    3    0.93172931E-01 -0.28245768E-01
    1    4   -0.14956396E+01  0.83193915E+00
    2    4   -0.76397729E-02 -0.12458970E-02
    3    4   -0.35160328E-03 -0.31052884E-02
    4    4   -0.46187130E+00  0.10560767E-03
    5    4    0.17385655E-02  0.59671967E-03
    6    4   -0.30572271E-02  0.53337487E-04
    1    5    0.54896220E-02 -0.43048902E-02
    2    5   -0.60279583E+00 -0.41208257E-01
    3    5    0.12701446E+00  0.36016954E-01
    4    5    0.36860706E-02 -0.38615891E-03
    5    5   -0.13777344E+00 -0.46850417E-02
    6    5   -0.20868161E+00  0.95766934E-01
    1    6    0.26626787E-02 -0.21739162E-02
    2    6    0.11002346E+01  0.23132335E+00
    3    6    0.51486457E-01  0.22121160E-01
    4    6   -0.17066328E-02 -0.11647782E-02
    5    6    0.39402033E+00  0.54438308E-01
    6    6    0.55322419E+00 -0.43476263E-01

    0    2    0
    1    1   -0.11762596E+00  0.26992854E-04
    2    1   -0.22298780E-03  0.15818629E-03
    3    1   -0.51224426E-03  0.52496613E-04
    4    1   -0.14607763E-02 -0.70289564E-04
    5    1    0.49743593E-04 -0.13511283E-03
    6    1   -0.76861780E-04 -0.45208621E-05
    1    2    0.11463128E-02 -0.97680602E-03
    2    2    0.29390960E-01  0.18890877E-02
    3    2   -0.62000319E-01  0.47295683E-03
    4    2   -0.43229575E-03  0.23905648E-03
    5    2    0.12308208E-01  0.22840992E-03
    6    2    0.31466399E-01 -0.61889258E-02
    1    3   -0.17288604E-02  0.14018222E-02
    2    3    0.42334400E-01 -0.11439020E-01
    3    3    0.11535750E-01  0.33932620E-04
    4    3   -0.18786762E-03  0.36729547E-03
    5    3   -0.60903998E-01  0.27588090E-02
    6    3    0.51434300E-01 -0.11452398E-01
    1    4    0.22690912E+00 -0.12781414E+00
    2    4   -0.14494697E-03  0.12703727E-03
    3    4    0.60012190E-03  0.34170955E-03
    4    4   -0.48427735E-01 -0.32634306E-04
    5    4   -0.14903158E-03 -0.30154576E-03
    6    4   -0.18133096E-03  0.23755275E-03
    1    5   -0.13747578E-02  0.16950005E-03
    2    5   -0.26192151E-01  0.72056798E-02
    3    5   -0.47657620E-01 -0.25744570E-02
    4    5    0.11932121E-03  0.22066852E-03
    5    5   -0.23337919E-02 -0.78299448E-03
    6    5   -0.19396795E-01  0.39152384E-02
    1    6   -0.76308368E-03  0.56689186E-03
    2    6    0.66945961E-01  0.14879068E-01
    3    6   -0.50860808E-01 -0.22208661E-01
    4    6   -0.11928438E-03 -0.64132318E-04
    5    6    0.17199096E-01  0.11206087E-01
    6    6    0.32305926E-01 -0.11343843E-02

    0    3    0
    1    1    0.10727093E-01 -0.34790310E-05
    2    1    0.16773084E-03  0.12789289E-03
    3    1    0.41015576E-03  0.25110076E-03
    4    1   -0.87421235E-02 -0.30165123E-02
    5    1   -0.37878367E-04 -0.66220002E-04
    6    1    0.24918254E-04  0.20072891E-03
    1    2   -0.57618553E-04  0.28922586E-04
    2    2   -0.58500870E-03  0.10391527E-02
    3    2   -0.58640929E-02  0.56097192E-02
    4    2    0.16175594E-03 -0.51157876E-04
    5    2    0.18213902E-03  0.97473555E-03
    6    2   -0.10222304E-02  0.46143128E-03
    1    3   -0.75844946E-04  0.89077897E-03
    2    3   -0.12986992E-01 -0.41486854E-02
    3    3    0.13446579E-01  0.32197667E-04
    4    3    0.66288749E-04 -0.41091022E-03
    5    3    0.15129023E-01 -0.54383721E-02
    6    3    0.97745940E-02  0.45385985E-02
    1    4   -0.14674499E-02  0.98423531E-04
    2    4    0.27572889E-05 -0.94172346E-04
    3    4   -0.24843221E-03 -0.91397607E-04
    4    4    0.18468161E-01  0.61909252E-05
    5    4   -0.37626716E-04  0.14347847E-03
    6    4    0.26927496E-04 -0.84000335E-04
    1    5    0.49306366E-04  0.13559308E-03
    2    5   -0.41589840E-02 -0.58776098E-03
    3    5    0.14879125E-01  0.52665226E-02
    4    5   -0.29788254E-04 -0.33841038E-04
    5    5   -0.32981279E-02 -0.16165080E-03
    6    5    0.46247298E-03  0.12948968E-02
    1    6   -0.11502158E-03  0.33045794E-03
    2    6    0.33305012E-02  0.39723564E-03
    3    6    0.18076844E-01 -0.65861090E-03
    4    6    0.67208432E-04 -0.26567678E-04
    5    6    0.36972608E-02  0.68205313E-04
    6    6   -0.22378561E-03 -0.91241150E-03

    0    4    0
    1    1    0.47354773E-02 -0.22183114E-05
    2    1    0.38304894E-04 -0.34192952E-04
    3    1   -0.34123703E-03 -0.26091736E-03
    4    1    0.97656892E-02  0.25611302E-02
    5    1    0.15846803E-04  0.13637402E-03
    6    1    0.40444655E-04  0.20332223E-04
    1    2   -0.85276241E-04  0.26926937E-03
    2    2    0.14669313E-02 -0.10491938E-02
    3    2    0.12490908E-01  0.20459724E-02
    4    2    0.11613555E-04 -0.67467936E-04
    5    2   -0.29066060E-02 -0.91100685E-03
    6    2    0.39017667E-03 -0.29188190E-03
    1    3    0.30115032E-03 -0.38891908E-03
    2    3   -0.13931376E-01 -0.48365086E-02
    3    3   -0.54545541E-02 -0.56986544E-04
    4    3    0.31393665E-04  0.36324896E-03
    5    3   -0.73149338E-02 -0.10026139E-02
    6    3   -0.11842094E-01  0.39574445E-02
    1    4   -0.87452701E-02  0.30032964E-02
    2    4   -0.11820331E-03 -0.14240701E-04
    3    4   -0.12597397E-03  0.80957933E-04
    4    4   -0.69928689E-02  0.41507484E-05
    5    4    0.49351805E-04 -0.67257526E-04
    6    4   -0.28230982E-04 -0.25288649E-04
    1    5    0.47193107E-04  0.77525422E-04
    2    5    0.20431389E-02  0.28909003E-03
    3    5   -0.13281592E-01  0.26604999E-02
    4    5   -0.86558871E-05 -0.24514322E-04
    5    5   -0.67712274E-04  0.13997161E-03
    6    5    0.22856469E-02 -0.16400799E-02
    1    6   -0.26021855E-04  0.30496569E-04
    2    6    0.17192271E-02  0.45121877E-03
    3    6    0.10350058E-01 -0.15334688E-02
    4    6   -0.29793755E-04 -0.17267696E-04
    5    6   -0.19300304E-02 -0.31848835E-04
    6    6    0.13183535E-02  0.96427631E-03

    1   -3    0
    1    1    0.10907459E-01 -0.43008251E-04
    2    1   -0.13623708E-03  0.15375421E-03
    3    1   -0.28652275E-03  0.97140680E-04
    4    1   -0.22991019E-01 -0.10417542E-01
    5    1    0.54000171E-04  0.23903025E-03
    6    1    0.41827227E-04  0.16522866E-03
    1    2   -0.17455878E-04 -0.84356855E-04
    2    2    0.11349483E-02 -0.76103337E-03
    3    2    0.18739855E-01 -0.46136235E-02
    4    2    0.94539929E-05 -0.23494241E-04
    5    2   -0.78084930E-03 -0.47614497E-03
    6    2    0.11445060E-02  0.19563318E-03
    1    3    0.45373873E-04 -0.30752475E-03
    2    3   -0.25065885E-01 -0.18722805E-02
    3    3    0.13026993E-01 -0.86131036E-03
    4    3    0.85059814E-03 -0.78749504E-04
    5    3   -0.19425916E-01  0.27093677E-02
    6    3   -0.24540880E-01  0.16342127E-02
    1    4    0.34239713E-02 -0.18858576E-02
    2    4   -0.23455753E-04 -0.79433047E-04
    3    4   -0.27735686E-04 -0.12380710E-03
    4    4    0.46574989E-02  0.47177737E-04
    5    4   -0.15125839E-04 -0.23342060E-04
    6    4   -0.48390650E-05  0.15829936E-04
    1    5   -0.15059791E-05  0.10559391E-03
    2    5    0.27781962E-03  0.27989193E-03
    3    5   -0.92729655E-02 -0.32064396E-02
    4    5   -0.10232394E-03  0.69783061E-05
    5    5    0.21410206E-02  0.10276953E-02
    6    5    0.30540607E-02 -0.19055900E-03
    1    6   -0.51960383E-04  0.81462025E-04
    2    6    0.16898749E-02 -0.94445110E-03
    3    6    0.46299618E-02  0.56082179E-02
    4    6   -0.38713648E-04 -0.11832197E-04
    5    6   -0.26377238E-02 -0.13366451E-02
    6    6    0.33558284E-02  0.59047896E-03

    1   -2    0
    1    1   -0.43778323E-02  0.38770707E-03
    2    1    0.55191723E-03  0.13626476E-03
    3    1    0.58638733E-03  0.11129310E-02
    4    1    0.32556417E-01  0.12687527E-01
    5    1    0.45004737E-04 -0.25443699E-03
    6    1    0.11088039E-03  0.33643878E-03
    1    2   -0.10862177E-04  0.18846127E-03
    2    2    0.32450251E-02  0.33958324E-03
    3    2   -0.16404060E-01  0.54734954E-02
    4    2   -0.40502541E-04  0.10521821E-03
    5    2    0.49260349E-02  0.83151430E-03
    6    2    0.38759752E-02 -0.25160687E-02
    1    3   -0.32087053E-03  0.11482369E-02
    2    3    0.58604637E-01  0.90204649E-02
    3    3   -0.32423374E-01  0.82078288E-03
    4    3   -0.59504032E-03 -0.85926658E-03
    5    3    0.19575144E-01 -0.99054395E-03
    6    3    0.26279314E-01 -0.14009847E-01
    1    4   -0.19321233E-01  0.11341128E-01
    2    4   -0.59668931E-04  0.10918333E-03
    3    4   -0.42660079E-03 -0.75101286E-04
    4    4    0.23773692E-01 -0.39690426E-03
    5    4   -0.59353737E-04 -0.58956502E-04
    6    4   -0.12780075E-03 -0.38179787E-04
    1    5    0.12566549E-03 -0.30885884E-03
    2    5   -0.87539815E-02 -0.12001674E-02
    3    5   -0.59759556E-02  0.49584775E-02
    4    5    0.18854242E-04  0.15070321E-03
    5    5   -0.11212352E-02 -0.29857436E-02
    6    5   -0.53281670E-02  0.12456340E-02
    1    6   -0.18165223E-04  0.14966977E-03
    2    6    0.25899712E-03 -0.68256897E-03
    3    6   -0.14311268E-01 -0.81267872E-02
    4    6    0.52798615E-04 -0.14280002E-04
    5    6    0.11226776E-02  0.65480925E-03
    6    6    0.63917520E-02  0.18345746E-02

    1   -1    0
    1    1   -0.77263241E-01 -0.78883645E-03
    2    1    0.11590983E-03  0.41403239E-03
    3    1   -0.78938040E-04 -0.21021426E-02
    4    1    0.11788057E+00  0.69801964E-01
    5    1   -0.10506740E-02  0.50690613E-04
    6    1    0.17536099E-02  0.60231880E-03
    1    2   -0.41744228E-03  0.15016173E-03
    2    2   -0.11682008E-01 -0.65348350E-02
    3    2   -0.21551437E-01 -0.99712991E-02
    4    2    0.10115220E-02 -0.46169594E-03
    5    2    0.21087944E-01  0.15038016E-01
    6    2   -0.17310549E-01 -0.10457384E-01
    1    3    0.13715167E-02 -0.41029265E-02
    2    3    0.11500028E+00 -0.22185609E-01
    3    3    0.22135054E+00 -0.37523521E-02
[...]
    5    6    0.45681781E-02  0.13903261E-02  0.72563590E-02 -0.24898682E-02  0.41475875E-06  0.34907009E-04
    6    6    0.34568649E-03  0.62172840E-03  0.14875441E-02 -0.44934068E-03  0.50766776E-05  0.34492388E-04

    4    4    0
    1    1   -0.26910720E-02 -0.64823283E-03  0.15537182E-02 -0.11376571E-02 -0.28619416E-04  0.93233076E-04
    2    1   -0.40794739E-04  0.45994207E-04 -0.15496674E-04 -0.66335792E-04 -0.91361183E-03 -0.32658623E-03
    3    1    0.39396787E-02  0.15746983E-01 -0.14036532E-02 -0.49529498E-02  0.12876657E-01  0.14032172E-02
    4    1   -0.20619519E-02  0.38854032E-02 -0.38795414E-02 -0.11916293E-02  0.94724246E-05 -0.10860884E-04
    5    1    0.43394649E-05 -0.92759217E-04  0.18823122E-04  0.12265658E-04  0.14504605E-02 -0.23070314E-03
    6    1   -0.35843242E-04 -0.67500201E-04  0.84073009E-05 -0.37288540E-04  0.25397435E-03  0.37767986E-04
    1    2   -0.47149507E-04  0.26803404E-04 -0.28378118E-04 -0.37476196E-05 -0.91168238E-03  0.32847446E-03
    2    2    0.32118571E-03 -0.29264184E-03 -0.36511989E-03  0.12551673E-04 -0.83648341E-05  0.37321789E-04
    3    2   -0.67497605E-02 -0.31835119E-02 -0.49659016E-02  0.26726434E-02  0.11885853E-02  0.42666359E-02
    4    2    0.48395761E-04 -0.29684586E-04  0.46996133E-04 -0.26037046E-04  0.10855486E-03 -0.19633688E-04
    5    2    0.32633656E-02 -0.31311257E-02  0.56391392E-02 -0.72356192E-03  0.14854025E-05 -0.29295594E-04
    6    2   -0.24909398E-02 -0.13205139E-02 -0.75652055E-02  0.20622154E-02 -0.39171195E-05  0.13022435E-04
    1    3    0.13447723E-02 -0.54660097E-02  0.29003521E-02 -0.11344043E-01 -0.24481280E-01  0.25217696E-02
    2    3    0.41353001E-02  0.85944134E-03 -0.10422573E-01  0.14454384E-02 -0.49371377E-03  0.16650521E-02
    3    3    0.81712287E-02  0.50179404E-03 -0.47577693E-02  0.12686116E-02 -0.11847610E-04 -0.24469456E-03
    4    3    0.28003534E-02 -0.29286292E-02  0.42317977E-02 -0.44367778E-02 -0.86172013E-03 -0.50074253E-03
    5    3   -0.17628410E-03  0.19770588E-02  0.73323116E-02  0.13581391E-02 -0.55805831E-03  0.26685752E-02
    6    3    0.20792944E-02 -0.60402925E-03  0.34742998E-02 -0.25554985E-02 -0.32166463E-03  0.47572431E-02
    1    4   -0.24027747E-02  0.24143670E-02 -0.95100720E-02  0.50268667E-02 -0.14620247E-04 -0.34943502E-04
    2    4   -0.90196641E-05 -0.32364399E-04  0.25622154E-04 -0.10932245E-04 -0.33156636E-04  0.83153219E-04
    3    4   -0.47788141E-02 -0.50724253E-02  0.45993531E-02  0.48081738E-02 -0.36561022E-02  0.12317446E-02
    4    4   -0.20443173E-03  0.70664355E-03  0.11793388E-03  0.12166002E-02 -0.69721476E-05  0.34537991E-04
    5    4    0.16709934E-04  0.41842038E-04 -0.35792379E-04 -0.20466250E-04 -0.87024577E-03  0.49176699E-03
    6    4    0.30741352E-04 -0.43694066E-05 -0.22341933E-04 -0.70078269E-04 -0.97703823E-03  0.53063177E-03
    1    5   -0.16452374E-04  0.41309950E-04  0.54446992E-04  0.27982263E-04 -0.49441936E-04  0.52720151E-04
    2    5    0.21694062E-02 -0.19931478E-02  0.66146783E-02  0.13457965E-03  0.12418258E-04 -0.35478993E-04
    3    5    0.52870602E-02 -0.16758642E-02  0.70273691E-02  0.24127317E-02 -0.44124986E-03 -0.19953762E-02
    4    5   -0.37738606E-04  0.18488202E-04 -0.73506630E-04  0.61597305E-04  0.94226733E-03  0.32287186E-03
    5    5    0.71589503E-03  0.31084363E-02 -0.49115800E-03 -0.14750789E-02  0.55613040E-06 -0.23031798E-05
    6    5    0.27870870E-02  0.20619074E-02 -0.20209503E-02 -0.17594362E-02  0.75717763E-05 -0.41903121E-04
    1    6    0.13034317E-04  0.26367308E-04 -0.57418374E-04  0.63902795E-05 -0.12179932E-02 -0.41922979E-03
    2    6   -0.26492027E-02 -0.19324284E-02 -0.10407504E-01 -0.17140219E-02 -0.19090982E-05  0.41599859E-05
    3    6   -0.50029500E-04  0.54793563E-03 -0.23803539E-02 -0.28295973E-02  0.20604018E-03  0.30573344E-02
    4    6   -0.67921463E-05  0.37652626E-04 -0.12882223E-04  0.26599329E-04  0.87516388E-03  0.67890106E-03
    5    6    0.26342316E-03  0.23416486E-02 -0.44806854E-02 -0.13380759E-02  0.12199804E-04 -0.39151329E-04
    6    6    0.12381550E-02 -0.26207851E-02 -0.30801354E-03  0.17683959E-02  0.65509693E-05 -0.33292618E-04

    4    5    0
    1    1   -0.32841543E-02  0.32866060E-03  0.18955020E-02 -0.18923849E-03  0.46715798E-04  0.25783362E-04
    2    1    0.30758123E-05  0.71637595E-04 -0.55876277E-05  0.34272224E-04  0.76637354E-04 -0.10555784E-03
    3    1   -0.79909628E-03 -0.32810944E-02  0.37168628E-02  0.14583850E-01  0.53371768E-02  0.82236425E-03
    4    1   -0.31139451E-02  0.44259587E-03  0.36667102E-02  0.17404528E-02  0.17061596E-04 -0.27461307E-04
    5    1   -0.22100119E-04  0.67533820E-05 -0.31389885E-04 -0.74573399E-04  0.10164137E-04 -0.16092925E-03
    6    1    0.20050264E-04  0.10505359E-03 -0.30363859E-04 -0.25905826E-04 -0.86456181E-04  0.14537931E-03
    1    2    0.13198211E-04  0.63968561E-04 -0.85516769E-05  0.11379856E-03  0.37050498E-03 -0.85275215E-04
    2    2    0.85921717E-03 -0.47169942E-02 -0.54146023E-03  0.26290044E-02  0.19031972E-04 -0.32641781E-05
    3    2    0.19943829E-02  0.11786306E-02  0.10748079E-01 -0.10430973E-04 -0.71506303E-03 -0.26208541E-02
    4    2    0.10749050E-04  0.47889500E-04 -0.29357729E-04  0.13171298E-04 -0.91622990E-03 -0.15482764E-03
    5    2   -0.21474783E-02  0.11556573E-01  0.45760209E-02 -0.64782145E-02 -0.97752505E-05  0.19019141E-06
    6    2    0.15438634E-02 -0.12010870E-01 -0.21916649E-02  0.56459005E-02  0.45827225E-05 -0.19228099E-05
    1    3   -0.21304960E-02  0.83308181E-02 -0.26104732E-02  0.98645936E-02  0.18514867E-01 -0.22802735E-02
    2    3    0.86703378E-05  0.75642888E-03  0.45094747E-02 -0.26403996E-02 -0.74579672E-03  0.26129291E-02
    3    3   -0.14588470E-01  0.35251062E-03  0.83826410E-02 -0.22697814E-03 -0.12328425E-03 -0.70715246E-04
    4    3   -0.47280340E-03  0.53902274E-03 -0.36815182E-02  0.38679105E-02 -0.67164954E-02 -0.25897434E-02
    5    3   -0.13130751E-02 -0.65326239E-03  0.30652460E-02  0.17692626E-02  0.10410023E-02 -0.46580920E-02
    6    3    0.54239666E-03  0.25593190E-03 -0.17068570E-02  0.24056013E-02  0.11778590E-03 -0.16957502E-02
    1    4   -0.61002921E-03  0.19698105E-03 -0.10259638E-02  0.22341489E-05 -0.20570708E-05  0.27584425E-04
    2    4    0.11653973E-04  0.54818357E-04  0.44773464E-04  0.50537099E-04  0.13167123E-02 -0.49599508E-03
    3    4    0.57138013E-02  0.61207306E-02  0.19395411E-02  0.20743087E-02  0.31990060E-02 -0.14057452E-02
    4    4    0.11071370E-02  0.54329430E-02 -0.63911129E-03 -0.31364772E-02  0.17247368E-05  0.14393407E-04
    5    4   -0.26790789E-04 -0.73654219E-04 -0.30560388E-04 -0.83102875E-05  0.47170412E-04 -0.90277397E-04
    6    4   -0.17424596E-04 -0.25387185E-04  0.14607623E-04  0.53199538E-04 -0.13182708E-03  0.14915076E-03
    1    5    0.27669942E-04 -0.68550967E-04  0.60230484E-04 -0.10417111E-03 -0.28819583E-03  0.17167091E-03
    2    5   -0.20147231E-02  0.11009856E-01  0.41579822E-02 -0.74201803E-02 -0.20052775E-04  0.36483099E-05
    3    5   -0.28163383E-02  0.44141713E-03  0.22368971E-02 -0.16489555E-02  0.98995573E-03  0.46727595E-02
    4    5   -0.18469567E-04 -0.24297481E-04  0.74334632E-05 -0.12735242E-04 -0.20765492E-03  0.29876592E-04
    5    5    0.22370632E-02 -0.39158975E-02 -0.17855117E-02  0.21935800E-02  0.10058190E-05  0.12744625E-05
    6    5    0.27353606E-02 -0.10505234E-01 -0.21784608E-02  0.71611666E-02 -0.15654791E-04  0.16453597E-05
    1    6    0.16858143E-04 -0.93466102E-06  0.87550101E-05  0.45375851E-04  0.19524607E-03 -0.10019946E-03
    2    6    0.63911079E-02 -0.10716048E-01 -0.24860032E-02  0.42556822E-02  0.65788415E-05  0.33145360E-05
    3    6    0.42641747E-02 -0.13002178E-02  0.91271567E-02  0.21916974E-02  0.10452612E-03  0.17114002E-02
    4    6   -0.88554544E-05  0.78637590E-05 -0.23433481E-04  0.44182896E-04  0.26914199E-03  0.17470040E-04
    5    6    0.59701294E-02 -0.97646611E-02 -0.56780629E-02  0.44768294E-02 -0.17793573E-04 -0.21235482E-05
    6    6    0.27782569E-02 -0.40030961E-02 -0.10798542E-02  0.24951455E-02 -0.92616113E-05  0.73391482E-07

    5    1    0
    1    1    0.28924731E-06 -0.21613891E-06 -0.38106945E-02 -0.37960594E-03 -0.84766703E-05 -0.51679522E-04
    2    1    0.74167711E-05  0.99052501E-04  0.55583036E-05  0.46226560E-04 -0.13597495E-02 -0.49688931E-03
    3    1   -0.69436724E-03 -0.32247064E-02  0.37020761E-02  0.14775766E-01  0.12322263E-01  0.13680248E-02
    4    1   -0.73458585E-02 -0.45849200E-02  0.69733031E-02 -0.35457123E-03  0.57461157E-05  0.65308113E-05
    5    1   -0.25500812E-04  0.19641627E-04 -0.44163287E-04 -0.87881143E-04  0.50517469E-03 -0.42339670E-03
    6    1    0.23680880E-04  0.12670941E-03 -0.31690523E-04 -0.22592844E-04  0.13499456E-03  0.39081383E-03
    1    2    0.10322744E-04  0.42928733E-04  0.13795548E-04 -0.23065706E-04 -0.14300486E-03  0.10671760E-03
    2    2    0.62388318E-03 -0.17545620E-03  0.39468850E-02  0.43945667E-02  0.15130583E-04  0.62372952E-06
    3    2   -0.30604665E-02 -0.38340790E-02  0.64617175E-02  0.49156294E-02 -0.76261542E-03 -0.25947152E-02
    4    2    0.20053020E-04  0.10137773E-04  0.31288044E-04 -0.61185564E-04  0.20367249E-03  0.16153100E-03
    5    2    0.32472440E-02 -0.66753960E-03  0.63936149E-02  0.12015951E-01 -0.16419550E-04 -0.26453869E-05
    6    2   -0.27828650E-02  0.10615511E-02 -0.91235232E-02 -0.10146917E-01  0.86870785E-05 -0.42878209E-05
    1    3    0.69653596E-03 -0.32118323E-02  0.13828538E-02 -0.55284080E-02  0.12836808E-01 -0.14731211E-02
    2    3    0.11086873E-01 -0.76395450E-03  0.48580487E-03  0.33909436E-02 -0.72333468E-03  0.26367311E-02
    3    3   -0.68259353E-04  0.23868693E-04 -0.17261229E-01 -0.44621118E-03 -0.18666664E-04  0.12842928E-03
    4    3   -0.62752380E-02  0.64294473E-02  0.41948188E-03 -0.35586952E-03  0.32004139E-02  0.14071969E-02
    5    3   -0.23102008E-02 -0.23606132E-02  0.31916103E-03  0.21748352E-02  0.97530904E-03 -0.46841238E-02
    6    3    0.44236863E-02 -0.74456821E-03 -0.53829252E-03 -0.34057295E-02  0.10666180E-03 -0.16894717E-02
    1    4    0.10340609E-01 -0.59709926E-02  0.25938120E-02 -0.32248558E-03  0.99861575E-07  0.26952435E-04
    2    4   -0.28091155E-04  0.10061808E-04  0.35615266E-04  0.10798062E-04 -0.29237176E-03 -0.69104468E-04
    3    4    0.56253557E-02  0.59357217E-02  0.18948070E-02  0.20357059E-02 -0.67251940E-02  0.25838130E-02
    4    4    0.14729423E-06 -0.67213675E-07  0.12736340E-02 -0.62732738E-02  0.70051794E-05 -0.20867529E-04
    5    4   -0.21815181E-04 -0.30934812E-04 -0.56617436E-04  0.44247495E-04 -0.31661822E-03 -0.15692480E-05
    6    4   -0.13826509E-04 -0.14755638E-04  0.22873641E-04  0.17944366E-04  0.81326526E-03 -0.29876611E-03
    1    5   -0.12299188E-04  0.61765974E-04 -0.85722978E-05  0.13670633E-04  0.12193195E-02  0.26065580E-03
    2    5   -0.64162302E-03  0.57097887E-03  0.47213698E-02  0.12806573E-01 -0.10762373E-04  0.35687035E-05
    3    5   -0.26946333E-02 -0.11770853E-02  0.77150356E-02  0.43831650E-02  0.10399614E-02  0.46686561E-02
    4    5    0.63281612E-04 -0.64582124E-04  0.14575679E-04  0.47966902E-04  0.20662496E-03  0.16221992E-03
    5    5   -0.50439085E-03  0.25800138E-03  0.31872473E-02  0.47719912E-02  0.25984028E-06 -0.22864848E-05
    6    5    0.55525443E-03 -0.66176017E-03 -0.73086305E-02 -0.93791526E-02 -0.19424467E-04  0.46290115E-05
    1    6    0.60706065E-05  0.64900552E-04 -0.91155641E-05 -0.15332168E-05  0.89315229E-03 -0.10758847E-03
    2    6   -0.41467041E-02 -0.11001153E-02 -0.17962536E-02 -0.15950988E-01  0.14950870E-05  0.68432262E-06
    3    6    0.41918267E-02  0.40027426E-02  0.21273033E-02 -0.41649307E-02  0.11029344E-03  0.16942918E-02
    4    6    0.78656491E-04 -0.24437885E-04  0.14556096E-04 -0.25391838E-04 -0.11376064E-02 -0.72129637E-03
    5    6   -0.12272489E-02 -0.18300238E-03 -0.22651695E-02 -0.13841679E-01 -0.11986435E-04  0.24226564E-06
    6    6    0.20077153E-04 -0.47788199E-04  0.49780784E-03  0.53862736E-02 -0.10431045E-04  0.14662596E-05

    5    2    0
    1    1    0.39306577E-03  0.95112240E-04  0.27825890E-03  0.24963063E-03 -0.86342960E-05  0.83294262E-04
    2    1   -0.24076329E-04 -0.85758780E-04  0.12460313E-04  0.32248203E-04 -0.13376229E-02 -0.26931555E-03
    3    1   -0.32933397E-02 -0.12653029E-01 -0.24129218E-02 -0.97866467E-02 -0.36906860E-01 -0.43256233E-02
    4    1   -0.60364704E-02 -0.54002339E-02 -0.27903221E-02 -0.17332123E-02 -0.32547497E-04 -0.44357683E-04
    5    1    0.46056519E-04  0.16196533E-03 -0.17933059E-04  0.68475756E-04  0.24726214E-02 -0.27410899E-03
    6    1    0.24762774E-04 -0.40217720E-04  0.29980905E-04  0.73931047E-04  0.16385904E-02 -0.80656200E-04
    1    2    0.24201700E-04  0.30676019E-05  0.53569366E-04 -0.13277857E-04 -0.11494767E-04  0.15954239E-03
    2    2   -0.18655402E-02 -0.54812837E-03 -0.69769522E-03 -0.12887332E-02 -0.74535373E-05 -0.38810677E-04
    3    2   -0.38536058E-02  0.21869683E-02 -0.26750339E-03 -0.57308122E-04 -0.46436702E-03 -0.16386447E-02
    4    2    0.16926616E-04 -0.59204773E-04 -0.37911180E-04  0.65340821E-05 -0.37578045E-03 -0.41607428E-03
    5    2   -0.54072189E-02 -0.16736120E-02 -0.29064166E-02 -0.10251200E-02  0.13211503E-04  0.35759991E-04
    6    2    0.57854552E-02 -0.97209036E-03  0.25608010E-05  0.54338639E-03 -0.55944222E-05 -0.78650555E-05
    1    3   -0.29133839E-02  0.11697162E-01 -0.68182802E-03  0.27245640E-02  0.54230479E-02 -0.76480678E-03
    2    3    0.89662574E-03  0.26394796E-02  0.29606914E-02 -0.48669533E-03  0.11599944E-02 -0.42838935E-02
    3    3   -0.11346730E-02  0.11781882E-04  0.33235328E-02 -0.27212709E-03 -0.53569237E-05 -0.34182101E-04
    4    3    0.29941337E-02 -0.28639638E-02  0.77291040E-03 -0.83376473E-03 -0.77310772E-02 -0.29756363E-02
    5    3    0.47885566E-02  0.37043350E-02  0.55025334E-02  0.44533351E-03 -0.41682940E-03  0.20386338E-02
    6    3    0.59578643E-03 -0.15332572E-02 -0.10028654E-02 -0.29473553E-03  0.23419343E-03 -0.30670530E-02
    1    4   -0.29207659E-03  0.26370911E-03  0.39909193E-02 -0.47408983E-03  0.18742442E-04  0.36627738E-04
    2    4    0.33737928E-04  0.63139525E-05  0.12294512E-04 -0.33831933E-04  0.69194929E-03 -0.10298220E-04
    3    4   -0.78255167E-03 -0.91636466E-03 -0.63695096E-02 -0.67649904E-02  0.51825462E-02 -0.21500229E-02
    4    4    0.74693473E-04 -0.18327807E-03  0.91535392E-03 -0.82587884E-04 -0.59325605E-05 -0.23962774E-04
    5    4    0.15897482E-04  0.24531776E-04  0.56733081E-04  0.39408854E-04  0.49772407E-03  0.14459963E-03
    6    4    0.15830539E-04  0.41812987E-04  0.20975996E-04  0.99960832E-05  0.40908351E-04 -0.41330304E-03
    1    5   -0.37835988E-05 -0.47456870E-04  0.61360293E-05 -0.62225804E-05  0.13333279E-03  0.16019038E-03
    2    5   -0.34592515E-02 -0.16941245E-02 -0.11056436E-02 -0.51752260E-03  0.19997941E-06  0.32086806E-04
    3    5    0.10262307E-02  0.24219700E-02 -0.51458880E-02 -0.13639613E-02 -0.58241690E-03 -0.26470270E-02
    4    5   -0.30633650E-04  0.13907017E-04 -0.33015051E-04  0.54956122E-05 -0.47535634E-03 -0.47203104E-03
    5    5    0.81504448E-03  0.40853208E-03  0.14225050E-02  0.53210937E-03  0.10438177E-06  0.12469060E-05
    6    5    0.21823325E-02 -0.37178221E-03  0.13948996E-02  0.11830943E-02  0.15987889E-04  0.39171305E-04
    1    6    0.19660895E-05 -0.25483753E-04 -0.26438751E-04  0.66142172E-05 -0.21614719E-04 -0.92678122E-04
    2    6    0.44866909E-02  0.76951410E-03  0.10071151E-02  0.32395348E-03 -0.53004593E-06 -0.62951742E-05
    3    6   -0.39770841E-02 -0.31501941E-02 -0.11970894E-02  0.54430147E-03 -0.33205294E-03 -0.47609729E-02
    4    6    0.19247208E-04 -0.40055385E-04 -0.42815528E-05  0.21214978E-04 -0.37737770E-04  0.13694513E-03
    5    6    0.36068655E-02  0.22123157E-03  0.31485054E-02  0.22059823E-02  0.14956290E-05  0.39409726E-04
    6    6    0.12095737E-02 -0.44761070E-04 -0.95963524E-04  0.10178114E-02  0.68488780E-05  0.33940824E-04

    5    3    0
    1    1    0.43326230E-03  0.26456634E-03  0.20788453E-03 -0.42385743E-04 -0.33158997E-04  0.90329834E-04
    2    1   -0.36825586E-04  0.22011368E-04 -0.39636886E-04 -0.11868942E-03 -0.24862541E-03 -0.49378763E-03
    3    1    0.39907037E-02  0.15839963E-01 -0.13513951E-02 -0.49392851E-02  0.12426948E-01  0.13038787E-02
    4    1    0.51201276E-03 -0.10603420E-02 -0.86051643E-02 -0.36566325E-02 -0.15936576E-04  0.42398046E-04
    5    1    0.75945066E-05 -0.64616513E-04  0.69858042E-04  0.35030147E-04  0.47117184E-03 -0.41871620E-03
    6    1   -0.51544529E-04 -0.10588530E-03 -0.17699496E-04 -0.68366015E-04  0.13814960E-02  0.16308923E-03
    1    2   -0.81637018E-05 -0.28437269E-04  0.82522219E-05 -0.43385680E-04 -0.67103000E-03  0.27620252E-03
    2    2    0.29021871E-03  0.24081241E-03  0.10838214E-02 -0.43266154E-03 -0.84903231E-05  0.37592203E-04
    3    2    0.27018352E-02  0.54204356E-03  0.34299309E-02  0.26662637E-02  0.12276458E-02  0.42413096E-02
    4    2   -0.46474648E-04 -0.33499412E-04 -0.51311216E-04  0.21961602E-04 -0.98047236E-04 -0.23479454E-03
    5    2   -0.53579456E-02 -0.14385745E-02 -0.21662701E-02  0.12164658E-02  0.75615925E-05 -0.33347649E-04
    6    2    0.29236853E-02 -0.52319830E-03  0.34231607E-02 -0.62257288E-03 -0.21124469E-05  0.90616792E-05
    1    3    0.23173929E-02 -0.90819786E-02  0.13047986E-02 -0.50395414E-02  0.71175330E-03 -0.66565603E-04
    2    3    0.18004149E-02  0.14167577E-02 -0.55800482E-03  0.13538410E-02 -0.49836467E-03  0.16569981E-02
    3    3    0.22947976E-02 -0.16841889E-03 -0.24802938E-02  0.21006288E-03 -0.29791514E-05 -0.65920510E-04
    4    3    0.29601713E-02 -0.32063831E-02  0.30118766E-02 -0.31820559E-02 -0.77277445E-02 -0.29976028E-02
    5    3    0.70678532E-02  0.19578514E-02  0.11931462E-02  0.29636042E-02 -0.52020207E-03  0.26622743E-02
    6    3   -0.20420976E-02 -0.20239737E-03  0.56151353E-03 -0.22750262E-02 -0.32546692E-03  0.47539091E-02
    1    4    0.80972759E-03 -0.14209808E-02  0.46323410E-03 -0.81622570E-03  0.34013956E-04  0.92980265E-05
    2    4   -0.32366159E-04 -0.53499430E-04 -0.41331202E-04 -0.83708290E-05 -0.61566535E-04  0.43116804E-03
    3    4   -0.49651145E-02 -0.51506815E-02  0.44461376E-02  0.47773882E-02  0.52050212E-02 -0.21766968E-02
    4    4    0.82874418E-03 -0.16214845E-03 -0.39132905E-03 -0.11750939E-03  0.52625983E-05 -0.21229074E-04
    5    4    0.54214302E-04  0.41635421E-04 -0.49071333E-05 -0.28052589E-04  0.60872520E-03  0.75754510E-04
    6    4    0.12642585E-04 -0.11922615E-04 -0.31364051E-04 -0.28111484E-04 -0.60842815E-03  0.17070009E-03
    1    5   -0.17226808E-04  0.69050834E-04 -0.10684714E-04  0.45983666E-04  0.17341604E-02 -0.15544635E-03
    2    5   -0.26144191E-02 -0.18354633E-02 -0.24097885E-02  0.55109657E-03  0.70663125E-05 -0.38843258E-04
    3    5   -0.47507922E-02  0.15467927E-03  0.25728926E-02  0.27123073E-02 -0.48513666E-03 -0.20040408E-02
    4    5   -0.25867697E-04  0.45196338E-04  0.15612049E-04  0.22825482E-04 -0.49914537E-03 -0.48804584E-03
    5    5    0.17250347E-02  0.82062588E-03  0.10136623E-03 -0.15896621E-04 -0.12111238E-06  0.43434343E-05
    6    5    0.30149770E-02  0.64119159E-03  0.22525689E-02  0.79212348E-03  0.39384135E-05 -0.39612260E-04
    1    6   -0.30306262E-04  0.24509852E-04 -0.30368655E-05 -0.12279160E-04  0.10231137E-02 -0.88816242E-04
    2    6    0.31156483E-02  0.13823547E-02  0.52007580E-02  0.11963383E-02 -0.45614003E-05  0.62019470E-05
    3    6    0.17094634E-02 -0.70669958E-03  0.34996329E-02 -0.85818385E-03  0.20583937E-03  0.30654319E-02
    4    6    0.17245694E-04  0.17623887E-04 -0.54604819E-04  0.27230630E-04  0.23761849E-03  0.41125519E-03
    5    6    0.48883736E-02  0.26775351E-02  0.24407485E-02  0.15615768E-02  0.15088673E-04 -0.37627801E-04
    6    6   -0.14213040E-02 -0.99698900E-03 -0.14846274E-02  0.16197146E-03  0.51003274E-05 -0.33857806E-04
